8
 energy: -7.664468952074 gnorm: 0.000857085340 xtb: 6.5.1 (b24c23e)
C            0.76756910584408       -0.06485844294748        0.09474262016704
N           -0.70581996985469        0.06007534130108       -0.08265357990487
H           -1.14732470867478       -0.86922121636582       -0.05611502365439
H           -1.12239496316871        0.63404893797318        0.66110924292513
H           -0.92924433111474        0.47302887275419       -0.99739028044584
H            1.00591590914607       -0.89333613679360        0.75622882050718
H            1.25345716918571       -0.21230017621553       -0.86691158028317
H            1.16883977863706        0.85022183029399        0.52701579068892
