2022-11-03:12:47:04,357 INFO     [psi4.driver.task_planner:266] PLANNING Atomic:  keywords={'FREEZE_CORE': 'TRUE', 'function_kwargs': {}}
2022-11-03:12:47:04,360 INFO     [psi4.driver.driver:499] Compute energy(): method=wb97x-d, basis=6-311+g*, molecule=default, nre=47.961131017757666
2022-11-03:12:47:07,351 INFO     [psi4.driver.driver:502] Return energy(): -96.20453075399536
,
    A. Alenaizan, A. M. James, S. Lehtola, J. P. Misiewicz, M. Scheurer,
    R. A. Shaw, J. B. Schriber, Y. Xie, Z. L. Glick, D. A. Sirianni,
    J. S. O'Brien, J. M. Waldrop, A. Kumar, E. G. Hohenstein,
    B. P. Pritchard, B. R. Brooks, H. F. Schaefer III, A. Yu. Sokolov,
    K. Patkowski, A. E. DePrince III, U. Bozkaya, R. A. King,
    F. A. Evangelista, J. M. Turney, T. D. Crawford, C. D. Sherrill,
    J. Chem. Phys. 152(18) 184108 (2020). https://doi.org/10.1063/5.0006002

                            Additional Code Authors
    E. T. Seidl, C. L. Janssen, E. F. Valeev, M. L. Leininger,
    J. F. Gonthier, R. M. Richard, H. R. McAlexander, M. Saitow, X. Wang,
    P. Verma, M. H. Lechner, and A. Jiang

             Previous Authors, Complete List of Code Contributors,
                       and Citations for Specific Modules
    https://github.com/psi4/psi4/blob/master/codemeta.json
    https://github.com/psi4/psi4/graphs/contributors
    http://psicode.org/psi4manual/master/introduction.html#citing-psifour

    -----------------------------------------------------------------------


    Psi4 started on: Thursday, 03 November 2022 12:47PM

    Process ID: 7926
    Host:       DESKTOP-26BCFJT
    PSIDATADIR: /home/chase/psi4conda/share/psi4
    Memory:     500.0 MiB
    Threads:    1
    
  ==> Input File <==

--------------------------------------------------------------------------
molecule { 
1 1
 C    0.768741   -0.068386    0.082947
 N   -0.704811    0.064928   -0.086754
 H   -1.191058   -0.240104    0.767333
 H   -0.970058    1.039406   -0.276719
 H   -1.038915   -0.533974   -0.853137
 H    1.095993   -1.070188   -0.181198
 H    1.288144    0.660599   -0.534807
 H    1.042962    0.125380    1.118363
}
memory 1GB
set_num_threads(2)
psi4_io.set_default_path("/home/chase/temp/Psi4-mamm")
set freeze_core True
E, wfn = energy('wb97x-d/6-311+G*',return_wfn=True)
oeprop(wfn,"WIBERG_LOWDIN_INDICES")
clean()
--------------------------------------------------------------------------

  Memory set to 953.674 MiB by Python driver.
  Threads set to 2 by Python driver.

Scratch directory: /home/chase/temp/Psi4-mamm/

*** tstart() called on DESKTOP-26BCFJT
*** at Thu Nov  3 12:47:04 2022

   => Loading Basis Set <=

    Name: 6-311+G*
    Role: ORBITAL
    Keyword: BASIS
    atoms 1   entry C          line   130 file /home/chase/psi4conda/share/psi4/basis/6-311pgs.gbs 
    atoms 2   entry N          line   151 file /home/chase/psi4conda/share/psi4/basis/6-311pgs.gbs 
    atoms 3-8 entry H          line    47 file /home/chase/psi4conda/share/psi4/basis/6-311pgs.gbs 

   => WB97X-D: Empirical Dispersion <=

    Chai and Head-Gordon Dispersion Correction
    Chai, J.-D.; Head-Gordon, M. (2010), J. Chem. Phys., 132: 6615-6620

        s6 =       1.000000


         ---------------------------------------------------------
                                   SCF
               by Justin Turney, Rob Parrish, Andy Simmonett
                          and Daniel G. A. Smith
                              RKS Reference
                        2 Threads,    953 MiB Core
         ---------------------------------------------------------

  ==> Geometry <==

    Molecular point group: c1
    Full point group: C1

    Geometry (in Angstrom), charge = 1, multiplicity = 1:

       Center              X                  Y                   Z               Mass       
    ------------   -----------------  -----------------  -----------------  -----------------
         C            0.781713962989    -0.070555447489     0.088541753093    12.000000000000
         N           -0.691838037011     0.062758552511    -0.081159246907    14.003074004430
         H           -1.178085037011    -0.242273447489     0.772927753093     1.007825032230
         H           -0.957085037011     1.037236552511    -0.271124246907     1.007825032230
         H           -1.025942037011    -0.536143447489    -0.847542246907     1.007825032230
         H            1.108965962989    -1.072357447489    -0.175603246907     1.007825032230
         H            1.301116962989     0.658429552511    -0.529212246907     1.007825032230
         H            1.055934962989     0.123210552511     1.123957753093     1.007825032230

  Running in c1 symmetry.

  Rotational constants: A =      2.83768  B =      0.67963  C =      0.67717 [cm^-1]
  Rotational constants: A =  85071.54707  B =  20374.89310  C =  20300.94161 [MHz]
  Nuclear repulsion =   47.961131017757658

  Charge       = 1
  Multiplicity = 1
  Electrons    = 18
  Nalpha       = 9
  Nbeta        = 9

  ==> Algorithm <==

  SCF Algorithm Type is DF.
  DIIS enabled.
  MOM disabled.
  Fractional occupation disabled.
  Guess Type is SAD.
  Energy threshold   = 1.00e-06
  Density threshold  = 1.00e-06
  Integral threshold = 1.00e-12

  ==> Primary Basis <==

  Basis Set: 6-311+G*
    Blend: 6-311+G*
    Number of shells: 38
    Number of basis functions: 62
    Number of Cartesian functions: 64
    Spherical Harmonics?: true
    Max angular momentum: 2

  ==> DFT Potential <==

   => LibXC <=

    Version 5.1.5
    S. Lehtola, C. Steigemann, M. J. Oliveira, and M. A. Marques, SoftwareX 7, 1 (2018) (10.1016/j.softx.2017.11.002)

   => Composite Functional: WB97X-D <= 

    wB97X-D Hyb-GGA Exchange-Correlation Functional

    J.-D. Chai and M. Head-Gordon, Phys. Chem. Chem. Phys. 10, 6615 (2008) (10.1039/B810189B)

    Deriv               =              1
    GGA                 =           TRUE
    Meta                =          FALSE

    Exchange Hybrid     =           TRUE
    MP2 Hybrid          =          FALSE

   => Exchange-Correlation Functionals <=

    1.0000   wB97X-D range-separated functional

   => Exact (HF) Exchange <=

    0.7780            HF,LR [omega = 0.2000]
    0.2220               HF 

   => LibXC Density Thresholds  <==

    XC_HYB_GGA_XC_WB97X_D:  1.00E-14 

   => Molecular Quadrature <=

    Radial Scheme          =       TREUTLER
    Pruning Scheme         =           NONE
    Nuclear Scheme         =       TREUTLER

    Blocking Scheme        =         OCTREE
    BS radius alpha        =              1
    Pruning alpha          =              1
    Radial Points          =             75
    Spherical Points       =            302
    Total Points           =         174057
    Total Blocks           =           1356
    Max Points             =            256
    Max Functions          =             62
    Weights Tolerance      =       1.00E-15

   => Loading Basis Set <=

    Name: (6-311+G* AUX)
    Role: JKFIT
    Keyword: DF_BASIS_SCF
    atoms 1   entry C          line   200 file /home/chase/psi4conda/share/psi4/basis/heavy-aug-cc-pvtz-jkfit.gbs 
    atoms 2   entry N          line   262 file /home/chase/psi4conda/share/psi4/basis/heavy-aug-cc-pvtz-jkfit.gbs 
    atoms 3-8 entry H          line   116 file /home/chase/psi4conda/share/psi4/basis/heavy-aug-cc-pvtz-jkfit.gbs 

  ==> Integral Setup <==

  DFHelper Memory: AOs need 0.035 GiB; user supplied 0.408 GiB. Using in-core AOs.

  ==> MemDFJK: Density-Fitted J/K Matrices <==

    J tasked:                   Yes
    K tasked:                   Yes
    wK tasked:                  Yes
    Omega:                2.000E-01
    OpenMP threads:               2
    Memory [MiB]:               417
    Algorithm:                 Core
    Schwarz Cutoff:           1E-12
    Mask sparsity (%):       0.0000
    Fitting Condition:        1E-10

   => Auxiliary Basis Set <=

  Basis Set: (6-311+G* AUX)
    Blend: HEAVY-AUG-CC-PVTZ-JKFIT
    Number of shells: 120
    Number of basis functions: 388
    Number of Cartesian functions: 472
    Spherical Harmonics?: true
    Max angular momentum: 4

  Cached 100.0% of DFT collocation blocks in 0.291 [GiB].

  Minimum eigenvalue in the overlap matrix is 8.1553493858E-04.
  Reciprocal condition number of the overlap matrix is 9.8657840044E-05.
    Using symmetric orthogonalization.

  ==> Pre-Iterations <==

  SCF Guess: Superposition of Atomic Densities via on-the-fly atomic UHF (no occupation information).

   -------------------------
    Irrep   Nso     Nmo    
   -------------------------
     A         62      62 
   -------------------------
    Total      62      62
   -------------------------

  ==> Iterations <==

                           Total Energy        Delta E     RMS |[F,P]|

   @DF-RKS iter SAD:   -96.07491026713534   -9.60749e+01   0.00000e+00 
   @DF-RKS iter   1:   -96.08887182015050   -1.39616e-02   7.98078e-03 ADIIS/DIIS
   @DF-RKS iter   2:   -96.14779903717751   -5.89272e-02   5.91771e-03 ADIIS/DIIS
   @DF-RKS iter   3:   -96.20357549571442   -5.57765e-02   7.07235e-04 ADIIS/DIIS
   @DF-RKS iter   4:   -96.20437009133025   -7.94596e-04   3.11465e-04 ADIIS/DIIS
   @DF-RKS iter   5:   -96.20452649257552   -1.56401e-04   4.54308e-05 DIIS
   @DF-RKS iter   6:   -96.20453066356458   -4.17099e-06   5.64017e-06 DIIS
   @DF-RKS iter   7:   -96.20453075399536   -9.04308e-08   7.22525e-07 DIIS
  Energy and wave function converged.


  ==> Post-Iterations <==

   Electrons on quadrature grid:
      Ntotal   =   17.9999951188 ; deviation = -4.881e-06 

    Orbital Energies [Eh]
    ---------------------

    Doubly Occupied:                                                      

       1A    -14.783859     2A    -10.540180     3A     -1.330899  
       4A     -1.033504     5A     -0.904033     6A     -0.899226  
       7A     -0.801918     8A     -0.709178     9A     -0.704164  

    Virtual:                                                              

      10A     -0.138333    11A     -0.074295    12A     -0.070733  
      13A     -0.070451    14A     -0.020689    15A     -0.019469  
      16A     -0.017180    17A      0.002741    18A      0.004033  
      19A      0.028046    20A      0.047495    21A      0.067016  
      22A      0.070745    23A      0.104052    24A      0.188081  
      25A      0.283108    26A      0.283921    27A      0.327645  
      28A      0.334389    29A      0.372980    30A      0.464872  
      31A      0.474899    32A      0.479883    33A      0.531134  
      34A      0.561869    35A      0.562690    36A      0.611309  
      37A      0.768606    38A      1.071641    39A      1.102130  
      40A      1.107860    41A      1.426227    42A      1.428335  
      43A      1.534819    44A      1.793810    45A      1.802585  
      46A      1.874183    47A      1.885841    48A      2.085912  
      49A      2.336609    50A      2.340155    51A      2.345595  
      52A      2.441452    53A      2.623697    54A      2.629093  
      55A      2.985267    56A      2.991607    57A      3.116290  
      58A      3.779983    59A      3.786867    60A      4.253498  
      61A     23.391132    62A     35.155659  

    Final Occupation by Irrep:
              A 
    DOCC [     9 ]

  @DF-RKS Final Energy:   -96.20453075399536

   => Energetics <=

    Nuclear Repulsion Energy =             47.9611310177576584
    One-Electron Energy =                -218.3413147368555656
    Two-Electron Energy =                  83.9180941800502609
    DFT Exchange-Correlation Energy =      -9.7406162272143000
    Empirical Dispersion Energy =          -0.0018249877334048
    VV10 Nonlocal Energy =                  0.0000000000000000
    Total Energy =                        -96.2045307539953569

Computation Completed


Properties will be evaluated at   0.000000,   0.000000,   0.000000 [a0]

Properties computed using the SCF density matrix


 Multipole Moments:

 ------------------------------------------------------------------------------------
     Multipole            Electronic (a.u.)      Nuclear  (a.u.)        Total (a.u.)
 ------------------------------------------------------------------------------------

 L = 1.  Multiply by 2.5417464519 to convert [e a0] to [Debye]
 Dipole X            :         -1.1704799            0.2878493           -0.8826306
 Dipole Y            :          0.1013397           -0.0300854            0.0712543
 Dipole Z            :         -0.1579008            0.0690493           -0.0888515
 Magnitude           :                                                    0.8899486

 ------------------------------------------------------------------------------------

*** tstop() called on DESKTOP-26BCFJT at Thu Nov  3 12:47:07 2022
Module time:
	user time   =       5.53 seconds =       0.09 minutes
	system time =       0.26 seconds =       0.00 minutes
	total time  =          3 seconds =       0.05 minutes
Total time:
	user time   =       5.53 seconds =       0.09 minutes
	system time =       0.26 seconds =       0.00 minutes
	total time  =          3 seconds =       0.05 minutes


Properties will be evaluated at   0.000000,   0.000000,   0.000000 [a0]
OEProp: No title given, name of density matrix used for the following properties is 'SCF density'


  Wiberg Bond Indices using Orthogonal Lowdin Orbitals:

  Irrep: 1 Size: 8 x 8

                 1                   2                   3                   4                   5

    1     0.00000000000000     1.21597118201512     0.03204438376590     0.03194645248966     0.03199807945917
    2     1.21597118201512     0.00000000000000     0.85778797369194     0.85714119175018     0.85755599692683
    3     0.03204438376590     0.85778797369194     0.00000000000000     0.00830429591442     0.00828733231118
    4     0.03194645248966     0.85714119175018     0.00830429591442     0.00000000000000     0.00833926837292
    5     0.03199807945917     0.85755599692683     0.00828733231118     0.00833926837292     0.00000000000000
    6     0.90781412395523     0.04308365297319     0.00110560062827     0.00727022872057     0.00662119616359
    7     0.90841992502003     0.04282226526885     0.00723442954775     0.00657030734233     0.00103229202131
    8     0.90839776154698     0.04289600408070     0.00681636840259     0.00107635656299     0.00728229612191

                 6                   7                   8

    1     0.90781412395523     0.90841992502003     0.90839776154698
    2     0.04308365297319     0.04282226526885     0.04289600408070
    3     0.00110560062827     0.00723442954775     0.00681636840259
    4     0.00727022872057     0.00657030734233     0.00107635656299
    5     0.00662119616359     0.00103229202131     0.00728229612191
    6     0.00000000000000     0.01066975401916     0.01063095798274
    7     0.01066975401916     0.00000000000000     0.01063824675716
    8     0.01063095798274     0.01063824675716     0.00000000000000



  Atomic Valences: 

 #  #
 Irrep: 1
      1:    4.036591908252086
      2:    3.917258266706821
      3:    0.921580384262062
      4:    0.920648101153078
      5:    0.921116461376923
      6:    0.987195514442746
      7:    0.987387219976595
      8:    0.987737991455073


    Psi4 stopped on: Thursday, 03 November 2022 12:47PM
    Psi4 wall time for execution: 0:00:03.04

*** Psi4 exiting successfully. Buy a developer a beer!
