2022-11-03:12:47:08,457 INFO     [psi4.driver.task_planner:266] PLANNING Atomic:  keywords={'FREEZE_CORE': 'TRUE', 'function_kwargs': {}}
2022-11-03:12:47:08,461 INFO     [psi4.driver.driver:499] Compute energy(): method=wb97x-d, basis=6-311+g*, molecule=default, nre=47.961147260531575
2022-11-03:12:47:11,315 INFO     [psi4.driver.driver:502] Return energy(): -96.20453065498103
,
    A. Alenaizan, A. M. James, S. Lehtola, J. P. Misiewicz, M. Scheurer,
    R. A. Shaw, J. B. Schriber, Y. Xie, Z. L. Glick, D. A. Sirianni,
    J. S. O'Brien, J. M. Waldrop, A. Kumar, E. G. Hohenstein,
    B. P. Pritchard, B. R. Brooks, H. F. Schaefer III, A. Yu. Sokolov,
    K. Patkowski, A. E. DePrince III, U. Bozkaya, R. A. King,
    F. A. Evangelista, J. M. Turney, T. D. Crawford, C. D. Sherrill,
    J. Chem. Phys. 152(18) 184108 (2020). https://doi.org/10.1063/5.0006002

                            Additional Code Authors
    E. T. Seidl, C. L. Janssen, E. F. Valeev, M. L. Leininger,
    J. F. Gonthier, R. M. Richard, H. R. McAlexander, M. Saitow, X. Wang,
    P. Verma, M. H. Lechner, and A. Jiang

             Previous Authors, Complete List of Code Contributors,
                       and Citations for Specific Modules
    https://github.com/psi4/psi4/blob/master/codemeta.json
    https://github.com/psi4/psi4/graphs/contributors
    http://psicode.org/psi4manual/master/introduction.html#citing-psifour

    -----------------------------------------------------------------------


    Psi4 started on: Thursday, 03 November 2022 12:47PM

    Process ID: 7936
    Host:       DESKTOP-26BCFJT
    PSIDATADIR: /home/chase/psi4conda/share/psi4
    Memory:     500.0 MiB
    Threads:    1
    
  ==> Input File <==

--------------------------------------------------------------------------
molecule { 
1 1
 C    0.769271   -0.051020    0.090260
 N   -0.705232    0.047886   -0.094084
 H   -1.082233   -0.800951   -0.533852
 H   -1.170585    0.172864    0.815186
 H   -0.946351    0.865035   -0.670091
 H    0.993855   -0.544724    1.034000
 H    1.210615   -0.648207   -0.704347
 H    1.221657    0.936778    0.098954
}
memory 1GB
set_num_threads(2)
psi4_io.set_default_path("/home/chase/temp/Psi4-mamm")
set freeze_core True
E, wfn = energy('wb97x-d/6-311+G*',return_wfn=True)
oeprop(wfn,"WIBERG_LOWDIN_INDICES")
clean()
--------------------------------------------------------------------------

  Memory set to 953.674 MiB by Python driver.
  Threads set to 2 by Python driver.

Scratch directory: /home/chase/temp/Psi4-mamm/

*** tstart() called on DESKTOP-26BCFJT
*** at Thu Nov  3 12:47:08 2022

   => Loading Basis Set <=

    Name: 6-311+G*
    Role: ORBITAL
    Keyword: BASIS
    atoms 1   entry C          line   130 file /home/chase/psi4conda/share/psi4/basis/6-311pgs.gbs 
    atoms 2   entry N          line   151 file /home/chase/psi4conda/share/psi4/basis/6-311pgs.gbs 
    atoms 3-8 entry H          line    47 file /home/chase/psi4conda/share/psi4/basis/6-311pgs.gbs 

   => WB97X-D: Empirical Dispersion <=

    Chai and Head-Gordon Dispersion Correction
    Chai, J.-D.; Head-Gordon, M. (2010), J. Chem. Phys., 132: 6615-6620

        s6 =       1.000000


         ---------------------------------------------------------
                                   SCF
               by Justin Turney, Rob Parrish, Andy Simmonett
                          and Daniel G. A. Smith
                              RKS Reference
                        2 Threads,    953 MiB Core
         ---------------------------------------------------------

  ==> Geometry <==

    Molecular point group: c1
    Full point group: C1

    Geometry (in Angstrom), charge = 1, multiplicity = 1:

       Center              X                  Y                   Z               Mass       
    ------------   -----------------  -----------------  -----------------  -----------------
         C            0.782232922589    -0.052235472469     0.096318759454    12.000000000000
         N           -0.692270077411     0.046670527531    -0.088025240546    14.003074004430
         H           -1.069271077411    -0.802166472469    -0.527793240546     1.007825032230
         H           -1.157623077411     0.171648527531     0.821244759454     1.007825032230
         H           -0.933389077411     0.863819527531    -0.664032240546     1.007825032230
         H            1.006816922589    -0.545939472469     1.040058759454     1.007825032230
         H            1.223576922589    -0.649422472469    -0.698288240546     1.007825032230
         H            1.234618922589     0.935562527531     0.105012759454     1.007825032230

  Running in c1 symmetry.

  Rotational constants: A =      2.83768  B =      0.67963  C =      0.67717 [cm^-1]
  Rotational constants: A =  85071.50270  B =  20374.92406  C =  20300.96365 [MHz]
  Nuclear repulsion =   47.961147260531575

  Charge       = 1
  Multiplicity = 1
  Electrons    = 18
  Nalpha       = 9
  Nbeta        = 9

  ==> Algorithm <==

  SCF Algorithm Type is DF.
  DIIS enabled.
  MOM disabled.
  Fractional occupation disabled.
  Guess Type is SAD.
  Energy threshold   = 1.00e-06
  Density threshold  = 1.00e-06
  Integral threshold = 1.00e-12

  ==> Primary Basis <==

  Basis Set: 6-311+G*
    Blend: 6-311+G*
    Number of shells: 38
    Number of basis functions: 62
    Number of Cartesian functions: 64
    Spherical Harmonics?: true
    Max angular momentum: 2

  ==> DFT Potential <==

   => LibXC <=

    Version 5.1.5
    S. Lehtola, C. Steigemann, M. J. Oliveira, and M. A. Marques, SoftwareX 7, 1 (2018) (10.1016/j.softx.2017.11.002)

   => Composite Functional: WB97X-D <= 

    wB97X-D Hyb-GGA Exchange-Correlation Functional

    J.-D. Chai and M. Head-Gordon, Phys. Chem. Chem. Phys. 10, 6615 (2008) (10.1039/B810189B)

    Deriv               =              1
    GGA                 =           TRUE
    Meta                =          FALSE

    Exchange Hybrid     =           TRUE
    MP2 Hybrid          =          FALSE

   => Exchange-Correlation Functionals <=

    1.0000   wB97X-D range-separated functional

   => Exact (HF) Exchange <=

    0.7780            HF,LR [omega = 0.2000]
    0.2220               HF 

   => LibXC Density Thresholds  <==

    XC_HYB_GGA_XC_WB97X_D:  1.00E-14 

   => Molecular Quadrature <=

    Radial Scheme          =       TREUTLER
    Pruning Scheme         =           NONE
    Nuclear Scheme         =       TREUTLER

    Blocking Scheme        =         OCTREE
    BS radius alpha        =              1
    Pruning alpha          =              1
    Radial Points          =             75
    Spherical Points       =            302
    Total Points           =         174059
    Total Blocks           =           1348
    Max Points             =            256
    Max Functions          =             62
    Weights Tolerance      =       1.00E-15

   => Loading Basis Set <=

    Name: (6-311+G* AUX)
    Role: JKFIT
    Keyword: DF_BASIS_SCF
    atoms 1   entry C          line   200 file /home/chase/psi4conda/share/psi4/basis/heavy-aug-cc-pvtz-jkfit.gbs 
    atoms 2   entry N          line   262 file /home/chase/psi4conda/share/psi4/basis/heavy-aug-cc-pvtz-jkfit.gbs 
    atoms 3-8 entry H          line   116 file /home/chase/psi4conda/share/psi4/basis/heavy-aug-cc-pvtz-jkfit.gbs 

  ==> Integral Setup <==

  DFHelper Memory: AOs need 0.035 GiB; user supplied 0.408 GiB. Using in-core AOs.

  ==> MemDFJK: Density-Fitted J/K Matrices <==

    J tasked:                   Yes
    K tasked:                   Yes
    wK tasked:                  Yes
    Omega:                2.000E-01
    OpenMP threads:               2
    Memory [MiB]:               417
    Algorithm:                 Core
    Schwarz Cutoff:           1E-12
    Mask sparsity (%):       0.0000
    Fitting Condition:        1E-10

   => Auxiliary Basis Set <=

  Basis Set: (6-311+G* AUX)
    Blend: HEAVY-AUG-CC-PVTZ-JKFIT
    Number of shells: 120
    Number of basis functions: 388
    Number of Cartesian functions: 472
    Spherical Harmonics?: true
    Max angular momentum: 4

  Cached 100.0% of DFT collocation blocks in 0.291 [GiB].

  Minimum eigenvalue in the overlap matrix is 8.1553693575E-04.
  Reciprocal condition number of the overlap matrix is 9.8658041687E-05.
    Using symmetric orthogonalization.

  ==> Pre-Iterations <==

  SCF Guess: Superposition of Atomic Densities via on-the-fly atomic UHF (no occupation information).

   -------------------------
    Irrep   Nso     Nmo    
   -------------------------
     A         62      62 
   -------------------------
    Total      62      62
   -------------------------

  ==> Iterations <==

                           Total Energy        Delta E     RMS |[F,P]|

   @DF-RKS iter SAD:   -96.07491179898371   -9.60749e+01   0.00000e+00 
   @DF-RKS iter   1:   -96.08887148121320   -1.39597e-02   7.98079e-03 ADIIS/DIIS
   @DF-RKS iter   2:   -96.14779877785223   -5.89273e-02   5.91772e-03 ADIIS/DIIS
   @DF-RKS iter   3:   -96.20357539437063   -5.57766e-02   7.07236e-04 ADIIS/DIIS
   @DF-RKS iter   4:   -96.20436999163495   -7.94597e-04   3.11466e-04 ADIIS/DIIS
   @DF-RKS iter   5:   -96.20452639359316   -1.56402e-04   4.54306e-05 DIIS
   @DF-RKS iter   6:   -96.20453056455059   -4.17096e-06   5.64016e-06 DIIS
   @DF-RKS iter   7:   -96.20453065498103   -9.04304e-08   7.22523e-07 DIIS
  Energy and wave function converged.


  ==> Post-Iterations <==

   Electrons on quadrature grid:
      Ntotal   =   17.9999951175 ; deviation = -4.882e-06 

    Orbital Energies [Eh]
    ---------------------

    Doubly Occupied:                                                      

       1A    -14.783859     2A    -10.540179     3A     -1.330899  
       4A     -1.033504     5A     -0.904033     6A     -0.899226  
       7A     -0.801918     8A     -0.709178     9A     -0.704164  

    Virtual:                                                              

      10A     -0.138334    11A     -0.074295    12A     -0.070733  
      13A     -0.070451    14A     -0.020689    15A     -0.019469  
      16A     -0.017180    17A      0.002741    18A      0.004033  
      19A      0.028046    20A      0.047495    21A      0.067018  
      22A      0.070746    23A      0.104053    24A      0.188080  
      25A      0.283108    26A      0.283921    27A      0.327644  
      28A      0.334388    29A      0.372979    30A      0.464872  
      31A      0.474900    32A      0.479884    33A      0.531134  
      34A      0.561869    35A      0.562690    36A      0.611308  
      37A      0.768606    38A      1.071641    39A      1.102129  
      40A      1.107859    41A      1.426227    42A      1.428336  
      43A      1.534820    44A      1.793809    45A      1.802585  
      46A      1.874184    47A      1.885843    48A      2.085913  
      49A      2.336611    50A      2.340153    51A      2.345593  
      52A      2.441451    53A      2.623698    54A      2.629094  
      55A      2.985268    56A      2.991608    57A      3.116290  
      58A      3.779982    59A      3.786867    60A      4.253499  
      61A     23.391133    62A     35.155659  

    Final Occupation by Irrep:
              A 
    DOCC [     9 ]

  @DF-RKS Final Energy:   -96.20453065498103

   => Energetics <=

    Nuclear Repulsion Energy =             47.9611472605315754
    One-Electron Energy =                -218.3413465162200851
    Two-Electron Energy =                  83.9181103031240951
    DFT Exchange-Correlation Energy =      -9.7406167166722728
    Empirical Dispersion Energy =          -0.0018249857443206
    VV10 Nonlocal Energy =                  0.0000000000000000
    Total Energy =                        -96.2045306549810277

Computation Completed


Properties will be evaluated at   0.000000,   0.000000,   0.000000 [a0]

Properties computed using the SCF density matrix


 Multipole Moments:

 ------------------------------------------------------------------------------------
     Multipole            Electronic (a.u.)      Nuclear  (a.u.)        Total (a.u.)
 ------------------------------------------------------------------------------------

 L = 1.  Multiply by 2.5417464519 to convert [e a0] to [Debye]
 Dipole X            :         -1.1701424            0.2876853           -0.8824570
 Dipole Y            :          0.0890476           -0.0249765            0.0640711
 Dipole Z            :         -0.1674883            0.0716932           -0.0957951
 Magnitude           :                                                    0.8899507

 ------------------------------------------------------------------------------------

*** tstop() called on DESKTOP-26BCFJT at Thu Nov  3 12:47:11 2022
Module time:
	user time   =       5.27 seconds =       0.09 minutes
	system time =       0.21 seconds =       0.00 minutes
	total time  =          3 seconds =       0.05 minutes
Total time:
	user time   =       5.27 seconds =       0.09 minutes
	system time =       0.21 seconds =       0.00 minutes
	total time  =          3 seconds =       0.05 minutes


Properties will be evaluated at   0.000000,   0.000000,   0.000000 [a0]
OEProp: No title given, name of density matrix used for the following properties is 'SCF density'


  Wiberg Bond Indices using Orthogonal Lowdin Orbitals:

  Irrep: 1 Size: 8 x 8

                 1                   2                   3                   4                   5

    1     0.00000000000000     1.21597150583040     0.03194652191828     0.03204441136658     0.03199810706646
    2     1.21597150583040     0.00000000000000     0.85714119105916     0.85778813194542     0.85755563978199
    3     0.03194652191828     0.85714119105916     0.00000000000000     0.00830430620891     0.00833925362700
    4     0.03204441136658     0.85778813194542     0.00830430620891     0.00000000000000     0.00828732515482
    5     0.03199810706646     0.85755563978199     0.00833925362700     0.00828732515482     0.00000000000000
    6     0.90839781675510     0.04289608108605     0.00107634105622     0.00681650655759     0.00728220067310
    7     0.90841993093826     0.04282233692924     0.00657042266059     0.00723431880230     0.00103226412126
    8     0.90781410025598     0.04308371792513     0.00727012024045     0.00110557434098     0.00662131340276

                 6                   7                   8

    1     0.90839781675510     0.90841993093826     0.90781410025598
    2     0.04289608108605     0.04282233692924     0.04308371792513
    3     0.00107634105622     0.00657042266059     0.00727012024045
    4     0.00681650655759     0.00723431880230     0.00110557434098
    5     0.00728220067310     0.00103226412126     0.00662131340276
    6     0.00000000000000     0.01063826815094     0.01063097210051
    7     0.01063826815094     0.00000000000000     0.01066976285202
    8     0.01063097210051     0.01066976285202     0.00000000000000



  Atomic Valences: 

 #  #
 Irrep: 1
      1:    4.036592394131056
      2:    3.917258604557372
      3:    0.920648156770609
      4:    0.921580574376585
      5:    0.921116103827391
      6:    0.987738186379500
      7:    0.987387304454609
      8:    0.987195561117825


    Psi4 stopped on: Thursday, 03 November 2022 12:47PM
    Psi4 wall time for execution: 0:00:02.89

*** Psi4 exiting successfully. Buy a developer a beer!
