8
 energy: -7.662456110440 gnorm: 0.000316042700 xtb: 6.5.1 (b24c23e)
C            0.77135566458018       -0.05320416259711        0.09556448934079
N           -0.70925469517234        0.04834791218205       -0.08787628193947
H           -1.04310786418624       -0.63813964515446       -0.77590202595218
H           -1.20277234893507       -0.12538111035235        0.79663425835370
H           -0.97598238463866        0.98360152889304       -0.41992724576486
H            1.01363715635136       -0.28991422958567        1.12842184217474
H            1.18296706262734       -0.83372849672435       -0.53917905789676
H            1.25415239937342        0.88607819333885       -0.16171095831596
