8
 energy: -7.662456114981 gnorm: 0.000319654148 xtb: 6.5.1 (b24c23e)
C            0.77134979210993       -0.05813016614953        0.09269585876115
N           -0.70924332079987        0.05334005240062       -0.08497258444138
H           -1.18346074166329       -0.80226778232979        0.22991196081128
H           -1.08688546199363        0.84112374561814        0.45621776695087
H           -0.95146194365589        0.20359043368366       -1.07231952539387
H            1.03408901213627       -1.02315284438347        0.51840245150337
H            1.28012667110374        0.04357902446552       -0.86247160356650
H            1.13648400276275        0.71957654669485        0.75856268537508
