2022-11-03:12:47:08,457 INFO     [psi4.driver.task_planner:266] PLANNING Atomic:  keywords={'FREEZE_CORE': 'TRUE', 'function_kwargs': {}}
2022-11-03:12:47:08,461 INFO     [psi4.driver.driver:499] Compute energy(): method=wb97x-d, basis=6-311+g*, molecule=default, nre=47.872890682717525
2022-11-03:12:47:11,240 INFO     [psi4.driver.driver:502] Return energy(): -96.20252111151589
,
    A. Alenaizan, A. M. James, S. Lehtola, J. P. Misiewicz, M. Scheurer,
    R. A. Shaw, J. B. Schriber, Y. Xie, Z. L. Glick, D. A. Sirianni,
    J. S. O'Brien, J. M. Waldrop, A. Kumar, E. G. Hohenstein,
    B. P. Pritchard, B. R. Brooks, H. F. Schaefer III, A. Yu. Sokolov,
    K. Patkowski, A. E. DePrince III, U. Bozkaya, R. A. King,
    F. A. Evangelista, J. M. Turney, T. D. Crawford, C. D. Sherrill,
    J. Chem. Phys. 152(18) 184108 (2020). https://doi.org/10.1063/5.0006002

                            Additional Code Authors
    E. T. Seidl, C. L. Janssen, E. F. Valeev, M. L. Leininger,
    J. F. Gonthier, R. M. Richard, H. R. McAlexander, M. Saitow, X. Wang,
    P. Verma, M. H. Lechner, and A. Jiang

             Previous Authors, Complete List of Code Contributors,
                       and Citations for Specific Modules
    https://github.com/psi4/psi4/blob/master/codemeta.json
    https://github.com/psi4/psi4/graphs/contributors
    http://psicode.org/psi4manual/master/introduction.html#citing-psifour

    -----------------------------------------------------------------------


    Psi4 started on: Thursday, 03 November 2022 12:47PM

    Process ID: 7934
    Host:       DESKTOP-26BCFJT
    PSIDATADIR: /home/chase/psi4conda/share/psi4
    Memory:     500.0 MiB
    Threads:    1
    
  ==> Input File <==

--------------------------------------------------------------------------
molecule { 
1 1
 C    0.771027   -0.067960    0.088588
 N   -0.708920    0.063320   -0.080798
 H   -1.186100    0.053953    0.829318
 H   -0.948857    0.943369   -0.554134
 H   -1.085411   -0.710344   -0.642758
 H    1.137082   -0.956283   -0.419764
 H    1.281892    0.797421   -0.325748
 H    1.030287   -0.145818    1.141322
}
memory 1GB
set_num_threads(2)
psi4_io.set_default_path("/home/chase/temp/Psi4-mamm")
set freeze_core True
E, wfn = energy('wb97x-d/6-311+G*',return_wfn=True)
oeprop(wfn,"WIBERG_LOWDIN_INDICES")
clean()
--------------------------------------------------------------------------

  Memory set to 953.674 MiB by Python driver.
  Threads set to 2 by Python driver.

Scratch directory: /home/chase/temp/Psi4-mamm/

*** tstart() called on DESKTOP-26BCFJT
*** at Thu Nov  3 12:47:08 2022

   => Loading Basis Set <=

    Name: 6-311+G*
    Role: ORBITAL
    Keyword: BASIS
    atoms 1   entry C          line   130 file /home/chase/psi4conda/share/psi4/basis/6-311pgs.gbs 
    atoms 2   entry N          line   151 file /home/chase/psi4conda/share/psi4/basis/6-311pgs.gbs 
    atoms 3-8 entry H          line    47 file /home/chase/psi4conda/share/psi4/basis/6-311pgs.gbs 

   => WB97X-D: Empirical Dispersion <=

    Chai and Head-Gordon Dispersion Correction
    Chai, J.-D.; Head-Gordon, M. (2010), J. Chem. Phys., 132: 6615-6620

        s6 =       1.000000


         ---------------------------------------------------------
                                   SCF
               by Justin Turney, Rob Parrish, Andy Simmonett
                          and Daniel G. A. Smith
                              RKS Reference
                        2 Threads,    953 MiB Core
         ---------------------------------------------------------

  ==> Geometry <==

    Molecular point group: c1
    Full point group: C1

    Geometry (in Angstrom), charge = 1, multiplicity = 1:

       Center              X                  Y                   Z               Mass       
    ------------   -----------------  -----------------  -----------------  -----------------
         C            0.784881938935    -0.069623466053     0.089833160551    12.000000000000
         N           -0.695065061065     0.061656533947    -0.079552839449    14.003074004430
         H           -1.172245061065     0.052289533947     0.830563160551     1.007825032230
         H           -0.935002061065     0.941705533947    -0.552888839449     1.007825032230
         H           -1.071556061065    -0.712007466053    -0.641512839449     1.007825032230
         H            1.150936938935    -0.957946466053    -0.418518839449     1.007825032230
         H            1.295746938935     0.795757533947    -0.324502839449     1.007825032230
         H            1.044141938935    -0.147481466053     1.142567160551     1.007825032230

  Running in c1 symmetry.

  Rotational constants: A =      2.85120  B =      0.67280  C =      0.67280 [cm^-1]
  Rotational constants: A =  85476.84449  B =  20169.93955  C =  20169.92029 [MHz]
  Nuclear repulsion =   47.872890682717525

  Charge       = 1
  Multiplicity = 1
  Electrons    = 18
  Nalpha       = 9
  Nbeta        = 9

  ==> Algorithm <==

  SCF Algorithm Type is DF.
  DIIS enabled.
  MOM disabled.
  Fractional occupation disabled.
  Guess Type is SAD.
  Energy threshold   = 1.00e-06
  Density threshold  = 1.00e-06
  Integral threshold = 1.00e-12

  ==> Primary Basis <==

  Basis Set: 6-311+G*
    Blend: 6-311+G*
    Number of shells: 38
    Number of basis functions: 62
    Number of Cartesian functions: 64
    Spherical Harmonics?: true
    Max angular momentum: 2

  ==> DFT Potential <==

   => LibXC <=

    Version 5.1.5
    S. Lehtola, C. Steigemann, M. J. Oliveira, and M. A. Marques, SoftwareX 7, 1 (2018) (10.1016/j.softx.2017.11.002)

   => Composite Functional: WB97X-D <= 

    wB97X-D Hyb-GGA Exchange-Correlation Functional

    J.-D. Chai and M. Head-Gordon, Phys. Chem. Chem. Phys. 10, 6615 (2008) (10.1039/B810189B)

    Deriv               =              1
    GGA                 =           TRUE
    Meta                =          FALSE

    Exchange Hybrid     =           TRUE
    MP2 Hybrid          =          FALSE

   => Exchange-Correlation Functionals <=

    1.0000   wB97X-D range-separated functional

   => Exact (HF) Exchange <=

    0.7780            HF,LR [omega = 0.2000]
    0.2220               HF 

   => LibXC Density Thresholds  <==

    XC_HYB_GGA_XC_WB97X_D:  1.00E-14 

   => Molecular Quadrature <=

    Radial Scheme          =       TREUTLER
    Pruning Scheme         =           NONE
    Nuclear Scheme         =       TREUTLER

    Blocking Scheme        =         OCTREE
    BS radius alpha        =              1
    Pruning alpha          =              1
    Radial Points          =             75
    Spherical Points       =            302
    Total Points           =         174020
    Total Blocks           =           1354
    Max Points             =            255
    Max Functions          =             62
    Weights Tolerance      =       1.00E-15

   => Loading Basis Set <=

    Name: (6-311+G* AUX)
    Role: JKFIT
    Keyword: DF_BASIS_SCF
    atoms 1   entry C          line   200 file /home/chase/psi4conda/share/psi4/basis/heavy-aug-cc-pvtz-jkfit.gbs 
    atoms 2   entry N          line   262 file /home/chase/psi4conda/share/psi4/basis/heavy-aug-cc-pvtz-jkfit.gbs 
    atoms 3-8 entry H          line   116 file /home/chase/psi4conda/share/psi4/basis/heavy-aug-cc-pvtz-jkfit.gbs 

  ==> Integral Setup <==

  DFHelper Memory: AOs need 0.035 GiB; user supplied 0.409 GiB. Using in-core AOs.

  ==> MemDFJK: Density-Fitted J/K Matrices <==

    J tasked:                   Yes
    K tasked:                   Yes
    wK tasked:                  Yes
    Omega:                2.000E-01
    OpenMP threads:               2
    Memory [MiB]:               418
    Algorithm:                 Core
    Schwarz Cutoff:           1E-12
    Mask sparsity (%):       0.0000
    Fitting Condition:        1E-10

   => Auxiliary Basis Set <=

  Basis Set: (6-311+G* AUX)
    Blend: HEAVY-AUG-CC-PVTZ-JKFIT
    Number of shells: 120
    Number of basis functions: 388
    Number of Cartesian functions: 472
    Spherical Harmonics?: true
    Max angular momentum: 4

  Cached 100.0% of DFT collocation blocks in 0.290 [GiB].

  Minimum eigenvalue in the overlap matrix is 8.5859902076E-04.
  Reciprocal condition number of the overlap matrix is 1.0403820748E-04.
    Using symmetric orthogonalization.

  ==> Pre-Iterations <==

  SCF Guess: Superposition of Atomic Densities via on-the-fly atomic UHF (no occupation information).

   -------------------------
    Irrep   Nso     Nmo    
   -------------------------
     A         62      62 
   -------------------------
    Total      62      62
   -------------------------

  ==> Iterations <==

                           Total Energy        Delta E     RMS |[F,P]|

   @DF-RKS iter SAD:   -96.06776218687246   -9.60678e+01   0.00000e+00 
   @DF-RKS iter   1:   -96.08723287337791   -1.94707e-02   7.97249e-03 DIIS/ADIIS
   @DF-RKS iter   2:   -96.14607076817335   -5.88379e-02   5.90222e-03 DIIS/ADIIS
   @DF-RKS iter   3:   -96.20155622593680   -5.54855e-02   7.13062e-04 DIIS/ADIIS
   @DF-RKS iter   4:   -96.20236201314353   -8.05787e-04   3.09882e-04 DIIS/ADIIS
   @DF-RKS iter   5:   -96.20251682679516   -1.54814e-04   4.57449e-05 DIIS
   @DF-RKS iter   6:   -96.20252102727669   -4.20048e-06   5.55962e-06 DIIS
   @DF-RKS iter   7:   -96.20252111151589   -8.42392e-08   6.88793e-07 DIIS
  Energy and wave function converged.


  ==> Post-Iterations <==

   Electrons on quadrature grid:
      Ntotal   =   17.9999961655 ; deviation = -3.834e-06 

    Orbital Energies [Eh]
    ---------------------

    Doubly Occupied:                                                      

       1A    -14.783404     2A    -10.539880     3A     -1.329888  
       4A     -1.033407     5A     -0.900867     6A     -0.900863  
       7A     -0.802217     8A     -0.705788     9A     -0.705779  

    Virtual:                                                              

      10A     -0.138306    11A     -0.075007    12A     -0.070417  
      13A     -0.070416    14A     -0.027878    15A     -0.027875  
      16A     -0.020953    17A      0.003403    18A      0.003404  
      19A      0.027510    20A      0.046459    21A      0.095981  
      22A      0.095983    23A      0.106410    24A      0.181018  
      25A      0.284607    26A      0.284617    27A      0.312838  
      28A      0.312845    29A      0.367860    30A      0.467391  
      31A      0.504133    32A      0.504134    33A      0.531872  
      34A      0.556686    35A      0.556691    36A      0.598730  
      37A      0.793065    38A      1.085220    39A      1.085256  
      40A      1.089562    41A      1.430701    42A      1.430763  
      43A      1.526731    44A      1.795128    45A      1.795161  
      46A      1.893151    47A      1.893178    48A      2.091797  
      49A      2.314016    50A      2.314049    51A      2.333171  
      52A      2.429851    53A      2.662731    54A      2.662748  
      55A      2.982103    56A      2.982118    57A      3.107815  
      58A      3.783257    59A      3.783271    60A      4.257068  
      61A     23.395354    62A     35.157444  

    Final Occupation by Irrep:
              A 
    DOCC [     9 ]

  @DF-RKS Final Energy:   -96.20252111151589

   => Energetics <=

    Nuclear Repulsion Energy =             47.8728906827175251
    One-Electron Energy =                -218.1708980719822932
    Two-Electron Energy =                  83.8374569645217633
    DFT Exchange-Correlation Energy =      -9.7402071369122574
    Empirical Dispersion Energy =          -0.0017635498606336
    VV10 Nonlocal Energy =                  0.0000000000000000
    Total Energy =                        -96.2025211115158925

Computation Completed


Properties will be evaluated at   0.000000,   0.000000,   0.000000 [a0]

Properties computed using the SCF density matrix


 Multipole Moments:

 ------------------------------------------------------------------------------------
     Multipole            Electronic (a.u.)      Nuclear  (a.u.)        Total (a.u.)
 ------------------------------------------------------------------------------------

 L = 1.  Multiply by 2.5417464519 to convert [e a0] to [Debye]
 Dipole X            :         -1.1886774            0.2945305           -0.8941468
 Dipole Y            :          0.1054542           -0.0261309            0.0793233
 Dipole Z            :         -0.1360640            0.0337053           -0.1023588
 Magnitude           :                                                    0.9034755

 ------------------------------------------------------------------------------------

*** tstop() called on DESKTOP-26BCFJT at Thu Nov  3 12:47:11 2022
Module time:
	user time   =       5.27 seconds =       0.09 minutes
	system time =       0.17 seconds =       0.00 minutes
	total time  =          3 seconds =       0.05 minutes
Total time:
	user time   =       5.27 seconds =       0.09 minutes
	system time =       0.17 seconds =       0.00 minutes
	total time  =          3 seconds =       0.05 minutes


Properties will be evaluated at   0.000000,   0.000000,   0.000000 [a0]
OEProp: No title given, name of density matrix used for the following properties is 'SCF density'


  Wiberg Bond Indices using Orthogonal Lowdin Orbitals:

  Irrep: 1 Size: 8 x 8

                 1                   2                   3                   4                   5

    1     0.00000000000000     1.20235809048787     0.03128906619081     0.03129008624514     0.03128927690400
    2     1.20235809048787     0.00000000000000     0.85938954445892     0.85941354531678     0.85940399352714
    3     0.03128906619081     0.85938954445892     0.00000000000000     0.00844058887845     0.00844035591145
    4     0.03129008624514     0.85941354531678     0.00844058887845     0.00000000000000     0.00844047840542
    5     0.03128927690400     0.85940399352714     0.00844035591145     0.00844047840542     0.00000000000000
    6     0.91057499382460     0.04211230490460     0.00256216424136     0.00256207883635     0.00835255726476
    7     0.91056725991223     0.04211168490954     0.00256160032668     0.00835280095989     0.00256218212253
    8     0.91057367146989     0.04211553243888     0.00835294056070     0.00256243119803     0.00256217368839

                 6                   7                   8

    1     0.91057499382460     0.91056725991223     0.91057367146989
    2     0.04211230490460     0.04211168490954     0.04211553243888
    3     0.00256216424136     0.00256160032668     0.00835294056070
    4     0.00256207883635     0.00835280095989     0.00256243119803
    5     0.00835255726476     0.00256218212253     0.00256217368839
    6     0.00000000000000     0.01077169523611     0.01077340818600
    7     0.01077169523611     0.00000000000000     0.01077343519960
    8     0.01077340818600     0.01077343519960     0.00000000000000



  Atomic Valences: 

 #  #
 Irrep: 1
      1:    4.027942445034543
      2:    3.906904696043726
      3:    0.921036260568362
      4:    0.921062009840064
      5:    0.921051017823699
      6:    0.987709202493790
      7:    0.987700658666578
      8:    0.987713592741490


    Psi4 stopped on: Thursday, 03 November 2022 12:47PM
    Psi4 wall time for execution: 0:00:02.82

*** Psi4 exiting successfully. Buy a developer a beer!
