      -----------------------------------------------------------      
     |                   =====================                   |     
     |                           x T B                           |     
     |                   =====================                   |     
     |                         S. Grimme                         |     
     |          Mulliken Center for Theoretical Chemistry        |     
     |                    University of Bonn                     |     
      -----------------------------------------------------------      

   * xtb version 6.5.1 (b24c23e) compiled by 'conda@728c89f4b128' on 2022-07-12

   xtb is free software: you can redistribute it and/or modify it under
   the terms of the GNU Lesser General Public License as published by
   the Free Software Foundation, either version 3 of the License, or
   (at your option) any later version.
   
   xtb is distributed in the hope that it will be useful,
   but WITHOUT ANY WARRANTY; without even the implied warranty of
   MERCHANTABILITY or FITNESS FOR A PARTICULAR PURPOSE.  See the
   GNU Lesser General Public License for more details.
   
   Cite this work as:
   * C. Bannwarth, E. Caldeweyher, S. Ehlert, A. Hansen, P. Pracht,
     J. Seibert, S. Spicher, S. Grimme, WIREs Comput. Mol. Sci., 2020, 11,
     e01493. DOI: 10.1002/wcms.1493
   
   for GFN2-xTB:
   * C. Bannwarth, S. Ehlert and S. Grimme., J. Chem. Theory Comput., 2019,
     15, 1652-1671. DOI: 10.1021/acs.jctc.8b01176
   for GFN1-xTB:
   * S. Grimme, C. Bannwarth, P. Shushkov, J. Chem. Theory Comput., 2017,
     13, 1989-2009. DOI: 10.1021/acs.jctc.7b00118
   for GFN0-xTB:
   * P. Pracht, E. Caldeweyher, S. Ehlert, S. Grimme, ChemRxiv, 2019, preprint.
     DOI: 10.26434/chemrxiv.8326202.v1
   for GFN-FF:
   * S. Spicher and S. Grimme, Angew. Chem. Int. Ed., 2020, 59, 15665-15673.
     DOI: 10.1002/anie.202004239
   
   for ALPB and GBSA implicit solvation:
   * S. Ehlert, M. Stahn, S. Spicher, S. Grimme, J. Chem. Theory Comput.,
     2021, 17, 4250-4261. DOI: 10.1021/acs.jctc.1c00471
   
   for DFT-D4:
   * E. Caldeweyher, C. Bannwarth and S. Grimme, J. Chem. Phys., 2017,
     147, 034112. DOI: 10.1063/1.4993215
   * E. Caldeweyher, S. Ehlert, A. Hansen, H. Neugebauer, S. Spicher,
     C. Bannwarth and S. Grimme, J. Chem. Phys., 2019, 150, 154122.
     DOI: 10.1063/1.5090222
   * E. Caldeweyher, J.-M. Mewes, S. Ehlert and S. Grimme, Phys. Chem. Chem. Phys.
     2020, 22, 8499-8512. DOI: 10.1039/D0CP00502A
   
   for sTDA-xTB:
   * S. Grimme and C. Bannwarth, J. Chem. Phys., 2016, 145, 054103.
     DOI: 10.1063/1.4959605
   
   in the mass-spec context:
   * V. Asgeirsson, C. Bauer and S. Grimme, Chem. Sci., 2017, 8, 4879.
     DOI: 10.1039/c7sc00601b
   * J. Koopman and S. Grimme, ACS Omega 2019, 4, 12, 15120-15133.
     DOI: 10.1021/acsomega.9b02011
   
   for metadynamics refer to:
   * S. Grimme, J. Chem. Theory Comput., 2019, 155, 2847-2862
     DOI: 10.1021/acs.jctc.9b00143
   
   for SPH calculations refer to:
   * S. Spicher and S. Grimme, J. Chem. Theory Comput., 2021, 17, 1701-1714
     DOI: 10.1021/acs.jctc.0c01306
   
   with help from (in alphabetical order)
   P. Atkinson, C. Bannwarth, F. Bohle, G. Brandenburg, E. Caldeweyher
   M. Checinski, S. Dohm, S. Ehlert, S. Ehrlich, I. Gerasimov, C. Hölzer
   A. Katbashev, J. Koopman, C. Lavigne, S. Lehtola, F. März, M. Müller,
   F. Musil, H. Neugebauer, J. Pisarek, C. Plett, P. Pracht, F. Pultar,
   J. Seibert, P. Shushkov, S. Spicher, M. Stahn, M. Steiner, T. Strunk,
   J. Stückrath, T. Rose, and J. Unsleber
   
 * started run on 2022/11/03 at 12:45:24.325     

           -------------------------------------------------
          |                Calculation Setup                |
           -------------------------------------------------

          program call               : /home/chase/psi4conda/envs/xtbenv/bin/xtb --gfn 2 --chrg 1 --uhf 0 mamm-opt-1-2-300_preQMOPTprefit_xyzformat.xyz --opt --input xtb-opt-1-2-300_constr.txt
          coordinate file            : mamm-opt-1-2-300_preQMOPTprefit_xyzformat.xyz
          omp threads                :                     8

   ID    Z sym.   atoms
    1    6 C      1
    2    7 N      2
    3    1 H      3-8
constraining angle 7 1 2 5 to  299.9999037°, actual value:  -60.0000963°

           -------------------------------------------------
          |                 G F N 2 - x T B                 |
           -------------------------------------------------

        Reference                      10.1021/acs.jctc.8b01176
      * Hamiltonian:
        H0-scaling (s, p, d)           1.850000    2.230000    2.230000
        zeta-weighting                 0.500000
      * Dispersion:
        s8                             2.700000
        a1                             0.520000
        a2                             5.000000
        s9                             5.000000
      * Repulsion:
        kExp                           1.500000    1.000000
        rExp                           1.000000
      * Coulomb:
        alpha                          2.000000
        third order                    shell-resolved
        anisotropic                    true
        a3                             3.000000
        a5                             4.000000
        cn-shift                       1.200000
        cn-exp                         4.000000
        max-rad                        5.000000


          ...................................................
          :                      SETUP                      :
          :.................................................:
          :  # basis functions                  14          :
          :  # atomic orbitals                  14          :
          :  # shells                           10          :
          :  # electrons                        14          :
          :  max. iterations                   250          :
          :  Hamiltonian                  GFN2-xTB          :
          :  restarted?                      false          :
          :  GBSA solvation                  false          :
          :  PC potential                    false          :
          :  electronic temp.          300.0000000     K    :
          :  accuracy                    1.0000000          :
          :  -> integral cutoff          0.2500000E+02      :
          :  -> integral neglect         0.1000000E-07      :
          :  -> SCF convergence          0.1000000E-05 Eh   :
          :  -> wf. convergence          0.1000000E-03 e    :
          :  Broyden damping             0.4000000          :
          ...................................................

 iter      E             dE          RMSdq      gap      omega  full diag
   1     -7.6853756 -0.768538E+01  0.437E+00   11.88       0.0  T
   2     -7.7690703 -0.836948E-01  0.237E+00   10.99       1.0  T
   3     -7.7708112 -0.174091E-02  0.148E+00   10.85       1.0  T
   4     -7.7711216 -0.310343E-03  0.252E-01   10.62       1.0  T
   5     -7.7711304 -0.880130E-05  0.883E-02   10.63       1.0  T
   6     -7.7711319 -0.155826E-05  0.596E-03   10.65       5.9  T
   7     -7.7711319 -0.262316E-07  0.232E-03   10.65      15.3  T
   8     -7.7711320 -0.330922E-08  0.178E-04   10.65     198.8  T
   9     -7.7711320 -0.231992E-11  0.452E-05   10.65     781.9  T

   *** convergence criteria satisfied after 9 iterations ***

         #    Occupation            Energy/Eh            Energy/eV
      -------------------------------------------------------------
         1        2.0000           -0.9099390             -24.7607
         2        2.0000           -0.8537707             -23.2323
         3        2.0000           -0.8152982             -22.1854
         4        2.0000           -0.8152977             -22.1854
         5        2.0000           -0.7569640             -20.5980
         6        2.0000           -0.6861827             -18.6720
         7        2.0000           -0.6861823             -18.6720 (HOMO)
         8                         -0.2948118              -8.0222 (LUMO)
         9                         -0.1699992              -4.6259
        10                         -0.1134821              -3.0880
        11                         -0.1134748              -3.0878
        12                         -0.0512768              -1.3953
       ...                                ...                  ...
        14                          0.0208833               0.5683
      -------------------------------------------------------------
                  HL-Gap            0.3913705 Eh           10.6497 eV
             Fermi-level           -0.4904971 Eh          -13.3471 eV

 SCC (total)                   0 d,  0 h,  0 min,  0.195 sec
 SCC setup                      ...        0 min,  0.008 sec (  3.932%)
 Dispersion                     ...        0 min,  0.016 sec (  8.374%)
 classical contributions        ...        0 min,  0.006 sec (  2.892%)
 integral evaluation            ...        0 min,  0.023 sec ( 11.640%)
 iterations                     ...        0 min,  0.112 sec ( 57.348%)
 molecular gradient             ...        0 min,  0.031 sec ( 15.751%)
 printout                       ...        0 min,  0.000 sec (  0.056%)

         :::::::::::::::::::::::::::::::::::::::::::::::::::::
         ::                     SUMMARY                     ::
         :::::::::::::::::::::::::::::::::::::::::::::::::::::
         :: total energy              -7.665476080072 Eh    ::
         :: gradient norm              0.019230364456 Eh/a0 ::
         :: HOMO-LUMO gap             10.649733270846 eV    ::
         ::.................................................::
         :: SCC energy                -7.771131951107 Eh    ::
         :: -> isotropic ES            0.119132835566 Eh    ::
         :: -> anisotropic ES         -0.011853193747 Eh    ::
         :: -> anisotropic XC          0.007733230471 Eh    ::
         :: -> dispersion             -0.001374653519 Eh    ::
         :: repulsion energy           0.105655723064 Eh    ::
         :: add. restraining           0.000000000000 Eh    ::
         :: total charge               1.000000000000 e     ::
         :::::::::::::::::::::::::::::::::::::::::::::::::::::

      ----------------------------------------------------------- 
     |                   =====================                   |
     |                        A N C O P T                        |
     |                   =====================                   |
     |               Approximate Normal Coordinate               |
     |                Rational Function Optimizer                |
      ----------------------------------------------------------- 

          ...................................................
          :                      SETUP                      :
          :.................................................:
          :   optimization level            normal          :
          :   max. optcycles                   200          :
          :   ANC micro-cycles                  20          :
          :   degrees of freedom                18          :
          :.................................................:
          :   RF solver                   davidson          :
          :   write xtbopt.log                true          :
          :   linear?                        false          :
          :   energy convergence         0.5000000E-05 Eh   :
          :   grad. convergence          0.1000000E-02 Eh/α :
          :   maximium RF displ.         1.0000000          :
          :   Hlow (freq-cutoff)         0.1000000E-01      :
          :   Hmax (freq-cutoff)         5.0000000          :
          :   S6 in model hess.         20.0000000          :
          ...................................................

generating ANC from model Hessian ...
Using Lindh-Hessian (1995)
 Shifting diagonal of input Hessian by    0.0000000000000000     
 Lowest  eigenvalues of input Hessian
    0.000000    0.000000    0.000000    0.000000    0.000000    0.000000
    0.042275    0.046126    0.055531    0.066254    0.094140    0.096588
    0.141242    0.166526    0.202651    0.227302    0.383139    0.660032
 Highest eigenvalues
    0.723331    1.119427    1.195537    1.360948    1.361067    9.022059


........................................................................
.............................. CYCLE    1 ..............................
........................................................................
   1     -7.7711320 -0.777113E+01  0.843E-06   10.65       0.0  T
   2     -7.7711320 -0.177636E-14  0.523E-06   10.65    6757.9  T
   3     -7.7711320 -0.275335E-13  0.370E-07   10.65   95470.8  T
     SCC iter.                  ...        0 min,  0.056 sec
     gradient                   ...        0 min,  0.043 sec
 * total energy  :    -7.6654761 Eh     change       -0.4840572E-11 Eh
   gradient norm :     0.0192301 Eh/α   predicted     0.0000000E+00 (-100.00%)
   displ. norm   :     0.0694272 α      lambda       -0.1057104E-02
   maximum displ.:     0.0560064 α      in ANC's #10, #4, #11, ...

........................................................................
.............................. CYCLE    2 ..............................
........................................................................
   1     -7.7746504 -0.777465E+01  0.163E-01   10.97       0.0  T
   2     -7.7746837 -0.332585E-04  0.835E-02   10.95       1.0  T
   3     -7.7746842 -0.497008E-06  0.358E-02   10.95       1.0  T
   4     -7.7746843 -0.134621E-06  0.382E-03   10.96       9.2  T
   5     -7.7746843 -0.113278E-08  0.126E-03   10.96      28.1  T
   6     -7.7746843 -0.190381E-09  0.109E-04   10.96     324.7  T
   7     -7.7746843 -0.163425E-11  0.239E-05   10.96    1478.7  T
     SCC iter.                  ...        0 min,  0.083 sec
     gradient                   ...        0 min,  0.032 sec
 * total energy  :    -7.6661915 Eh     change       -0.7154067E-03 Eh
   gradient norm :     0.0083472 Eh/α   predicted    -0.5310996E-03 ( -25.76%)
   displ. norm   :     0.0357909 α      lambda       -0.2259629E-03
   maximum displ.:     0.0293785 α      in ANC's #10, #4, #13, ...

........................................................................
.............................. CYCLE    3 ..............................
........................................................................
   1     -7.7756768 -0.777568E+01  0.941E-02   11.12       0.0  T
   2     -7.7756862 -0.941788E-05  0.497E-02   11.11       1.0  T
   3     -7.7756863 -0.125122E-06  0.197E-02   11.11       1.8  T
   4     -7.7756864 -0.348287E-07  0.190E-03   11.11      18.6  T
   5     -7.7756864 -0.433551E-09  0.738E-04   11.11      47.9  T
   6     -7.7756864 -0.512754E-10  0.536E-05   11.11     659.4  T
     SCC iter.                  ...        0 min,  0.068 sec
     gradient                   ...        0 min,  0.035 sec
 * total energy  :    -7.6663037 Eh     change       -0.1122484E-03 Eh
   gradient norm :     0.0008248 Eh/α   predicted    -0.1131260E-03 (   0.78%)
   displ. norm   :     0.0030783 α      lambda       -0.1322378E-05
   maximum displ.:     0.0017964 α      in ANC's #10, #4, #13, ...

........................................................................
.............................. CYCLE    4 ..............................
........................................................................
   1     -7.7754650 -0.777547E+01  0.533E-03   11.11       0.0  T
   2     -7.7754650 -0.230743E-07  0.285E-03   11.11      12.4  T
   3     -7.7754650 -0.759376E-09  0.997E-04   11.11      35.5  T
   4     -7.7754650 -0.160454E-09  0.175E-04   11.11     201.6  T
     SCC iter.                  ...        0 min,  0.046 sec
     gradient                   ...        0 min,  0.033 sec
 * total energy  :    -7.6663045 Eh     change       -0.7643997E-06 Eh
   gradient norm :     0.0001730 Eh/α   predicted    -0.6599583E-06 ( -13.66%)
   displ. norm   :     0.0009244 α      lambda       -0.6300499E-07
   maximum displ.:     0.0008161 α      in ANC's #4, #10, #11, ...

   *** GEOMETRY OPTIMIZATION CONVERGED AFTER 4 ITERATIONS ***

------------------------------------------------------------------------
 total energy gain   :        -0.0008284 Eh       -0.5198 kcal/mol
 total RMSD          :         0.0362404 a0        0.0192 Å
 total power (kW/mol):        -0.5437538 (step)   -4.1227 (real)
------------------------------------------------------------------------

 ANCopt (total)                0 d,  0 h,  0 min,  0.528 sec
 optimizer setup                ...        0 min,  0.000 sec (  0.010%)
 model hessian                  ...        0 min,  0.009 sec (  1.625%)
 ANC generation                 ...        0 min,  0.000 sec (  0.030%)
 coordinate transformation      ...        0 min,  0.000 sec (  0.002%)
 single point calculation       ...        0 min,  0.507 sec ( 96.108%)
 optimization log               ...        0 min,  0.000 sec (  0.047%)
 hessian update                 ...        0 min,  0.011 sec (  2.084%)
 rational function              ...        0 min,  0.000 sec (  0.055%)

================
 final structure:
================
8
 xtb: 6.5.1 (b24c23e)
C            0.76600675716946       -0.05881902005355        0.09483474168149
N           -0.70309266076477        0.05398918246022       -0.08704604600413
H           -1.11174435224274       -0.86627025913441       -0.29886354376859
H           -1.14530584998245        0.41703120306871        0.76816631572378
H           -0.92215391145278        0.69336340813121       -0.86290238677643
H            0.98991168348880       -0.73598373591301        0.91629600459774
H            1.22647639900007       -0.44304466587766       -0.81281185900482
H            1.19089794478441        0.91739389731849        0.31835178355096

 Bond Distances (Angstroems)
 ---------------------------
C1-N2=1.4846         C1-H6=1.0879         C1-H7=1.0879         C1-H8=1.0879         N2-C1=1.4846         N2-H3=1.0290         
N2-H4=1.0290         N2-H5=1.0290         H3-N2=1.0290         H4-N2=1.0290         H5-N2=1.0290         H6-C1=1.0879         
H7-C1=1.0879         H8-C1=1.0879         
 C  H  Rav=1.0879 sigma=0.0000  Rmin=1.0879  Rmax=1.0879     3
 N  H  Rav=1.0290 sigma=0.0000  Rmin=1.0290  Rmax=1.0290     3
 N  C  Rav=1.4846 sigma=0.0000  Rmin=1.4846  Rmax=1.4846     1

 selected bond angles (degree)
 --------------------
H6-C1-N2=110.09                H7-C1-N2=110.09                H7-C1-H6=108.85                H8-C1-N2=110.09                
H8-C1-H6=108.85                H8-C1-H7=108.85                H3-N2-C1=110.50                H4-N2-C1=110.50                
H4-N2-H3=108.42                H5-N2-C1=110.50                H5-N2-H3=108.42                H5-N2-H4=108.42                

 selected dihedral angles (degree)
 ---------------------------------
H3-N2-C1-H6=300.00            H3-N2-C1-H7= 60.00            H3-N2-C1-H8=180.00            H4-N2-C1-H6= 60.00            
H4-N2-C1-H7=180.00            H4-N2-C1-H8=300.00            H5-N2-C1-H6=180.00            H5-N2-C1-H7=300.00            
H5-N2-C1-H8= 60.00            
           -------------------------------------------------
          |                Final Singlepoint                |
           -------------------------------------------------

          ...................................................
          :                      SETUP                      :
          :.................................................:
          :  # basis functions                  14          :
          :  # atomic orbitals                  14          :
          :  # shells                           10          :
          :  # electrons                        14          :
          :  max. iterations                   250          :
          :  Hamiltonian                  GFN2-xTB          :
          :  restarted?                      false          :
          :  GBSA solvation                  false          :
          :  PC potential                    false          :
          :  electronic temp.          300.0000000     K    :
          :  accuracy                    1.0000000          :
          :  -> integral cutoff          0.2500000E+02      :
          :  -> integral neglect         0.1000000E-07      :
          :  -> SCF convergence          0.1000000E-05 Eh   :
          :  -> wf. convergence          0.1000000E-03 e    :
          :  Broyden damping             0.4000000          :
          ...................................................

 iter      E             dE          RMSdq      gap      omega  full diag
   1     -7.7754650 -0.777547E+01  0.925E-06   11.11       0.0  T
   2     -7.7754650 -0.888178E-14  0.484E-06   11.11    7298.0  T
   3     -7.7754650 -0.106581E-13  0.661E-07   11.11   53463.0  T

   *** convergence criteria satisfied after 3 iterations ***

         #    Occupation            Energy/Eh            Energy/eV
      -------------------------------------------------------------
         1        2.0000           -0.9134523             -24.8563
         2        2.0000           -0.8556001             -23.2821
         3        2.0000           -0.8183668             -22.2689
         4        2.0000           -0.8183667             -22.2689
         5        2.0000           -0.7593963             -20.6642
         6        2.0000           -0.6852694             -18.6471
         7        2.0000           -0.6852694             -18.6471 (HOMO)
         8                         -0.2769858              -7.5372 (LUMO)
         9                         -0.1623318              -4.4173
        10                         -0.1101146              -2.9964
        11                         -0.1101146              -2.9964
        12                         -0.0356007              -0.9687
       ...                                ...                  ...
        14                          0.0240193               0.6536
      -------------------------------------------------------------
                  HL-Gap            0.4082835 Eh           11.1100 eV
             Fermi-level           -0.4811276 Eh          -13.0921 eV

 SCC (total)                   0 d,  0 h,  0 min,  0.109 sec
 SCC setup                      ...        0 min,  0.004 sec (  3.428%)
 Dispersion                     ...        0 min,  0.007 sec (  6.816%)
 classical contributions        ...        0 min,  0.005 sec (  4.434%)
 integral evaluation            ...        0 min,  0.012 sec ( 11.312%)
 iterations                     ...        0 min,  0.041 sec ( 37.349%)
 molecular gradient             ...        0 min,  0.040 sec ( 36.537%)
 printout                       ...        0 min,  0.000 sec (  0.108%)

         :::::::::::::::::::::::::::::::::::::::::::::::::::::
         ::                     SUMMARY                     ::
         :::::::::::::::::::::::::::::::::::::::::::::::::::::
         :: total energy              -7.666304499550 Eh    ::
         :: gradient norm              0.000172522233 Eh/a0 ::
         :: HOMO-LUMO gap             11.109960187621 eV    ::
         ::.................................................::
         :: SCC energy                -7.775465028792 Eh    ::
         :: -> isotropic ES            0.119642340859 Eh    ::
         :: -> anisotropic ES         -0.012201021168 Eh    ::
         :: -> anisotropic XC          0.007634839947 Eh    ::
         :: -> dispersion             -0.001377988545 Eh    ::
         :: repulsion energy           0.109160388903 Eh    ::
         :: add. restraining           0.000000000000 Eh    ::
         :: total charge               1.000000000000 e     ::
         :::::::::::::::::::::::::::::::::::::::::::::::::::::

           -------------------------------------------------
          |                Property Printout                |
           -------------------------------------------------

    * Orbital Energies and Occupations

         #    Occupation            Energy/Eh            Energy/eV
      -------------------------------------------------------------
         1        2.0000           -0.9134523             -24.8563
         2        2.0000           -0.8556001             -23.2821
         3        2.0000           -0.8183668             -22.2689
         4        2.0000           -0.8183667             -22.2689
         5        2.0000           -0.7593963             -20.6642
         6        2.0000           -0.6852694             -18.6471
         7        2.0000           -0.6852694             -18.6471 (HOMO)
         8                         -0.2769858              -7.5372 (LUMO)
         9                         -0.1623318              -4.4173
        10                         -0.1101146              -2.9964
        11                         -0.1101146              -2.9964
        12                         -0.0356007              -0.9687
        13                          0.0240192               0.6536
        14                          0.0240193               0.6536
      -------------------------------------------------------------
                  HL-Gap            0.4082835 Eh           11.1100 eV
             Fermi-level           -0.4811276 Eh          -13.0921 eV

     #   Z          covCN         q      C6AA      α(0)
     1   6 C        3.679    -0.101    22.671     6.820
     2   7 N        3.482    -0.110    23.390     7.183
     3   1 H        0.859     0.277     0.786     1.389
     4   1 H        0.859     0.277     0.786     1.389
     5   1 H        0.859     0.277     0.786     1.389
     6   1 H        0.925     0.127     1.561     1.954
     7   1 H        0.925     0.127     1.561     1.954
     8   1 H        0.925     0.127     1.561     1.954

 Mol. C6AA /au·bohr⁶  :        255.337594
 Mol. C8AA /au·bohr⁸  :       4969.739533
 Mol. α(0) /au        :         24.029867


Wiberg/Mayer (AO) data.
largest (>0.10) Wiberg bond orders for each atom

 ---------------------------------------------------------------------------
     #   Z sym  total        # sym  WBO       # sym  WBO       # sym  WBO
 ---------------------------------------------------------------------------
     1   6 C    3.877 --     7 H    0.973     8 H    0.973     6 H    0.973
                             2 N    0.955
     2   7 N    3.685 --     1 C    0.955     4 H    0.910     3 H    0.910
                             5 H    0.910
     3   1 H    0.923 --     2 N    0.910
     4   1 H    0.923 --     2 N    0.910
     5   1 H    0.923 --     2 N    0.910
     6   1 H    0.984 --     1 C    0.973
     7   1 H    0.984 --     1 C    0.973
     8   1 H    0.984 --     1 C    0.973
 ---------------------------------------------------------------------------

Topologies differ in total number of bonds
Writing topology from bond orders to xtbtopo.mol

molecular dipole:
                 x           y           z       tot (Debye)
 q only:       -0.850       0.065      -0.105
   full:       -1.069       0.082      -0.132       2.747
molecular quadrupole (traceless):
                xx          xy          yy          xz          yz          zz
 q only:        2.606      -0.303      -1.322       0.489      -0.038      -1.284
  q+dip:        1.370      -0.159      -0.695       0.257      -0.020      -0.675
   full:        2.008      -0.234      -1.019       0.377      -0.029      -0.990

           -------------------------------------------------
          |                Geometry Summary                 |
           -------------------------------------------------

      molecular mass/u    :       32.0650836
   center of mass at/Å    :       -0.0130301       0.0010011      -0.0016134
  moments of inertia/u·Å² :        0.5965127E+01   0.2469642E+02   0.2469642E+02
rotational constants/cm⁻¹ :        0.2826031E+01   0.6825942E+00   0.6825942E+00

 * 7 selected distances

     #   Z          #   Z                                           value/Å
     1   6 C        2   7 N                                       1.4846076 (max)
     2   7 N        3   1 H                                       1.0289512
     2   7 N        4   1 H                                       1.0289511 (min)
     2   7 N        5   1 H                                       1.0289512
     1   6 C        6   1 H                                       1.0878806
     1   6 C        7   1 H                                       1.0878806
     1   6 C        8   1 H                                       1.0878806

 * 3 distinct bonds (by element types)

   Z      Z             #   av. dist./Å        max./Å        min./Å
   1 H    6 C           3     1.0878806     1.0878806     1.0878806
   1 H    7 N           3     1.0289511     1.0289512     1.0289511
   6 C    7 N           1     1.4846076     1.4846076     1.4846076


optimized geometry written to: xtbopt.xyz


           -------------------------------------------------
          | TOTAL ENERGY               -7.666304499550 Eh   |
          | GRADIENT NORM               0.000172522233 Eh/α |
          | HOMO-LUMO GAP              11.109960187621 eV   |
           -------------------------------------------------

------------------------------------------------------------------------
 * finished run on 2022/11/03 at 12:45:25.205     
------------------------------------------------------------------------
 total:
 * wall-time:     0 d,  0 h,  0 min,  0.880 sec
 *  cpu-time:     0 d,  0 h,  0 min,  6.981 sec
 * ratio c/w:     7.935 speedup
 SCF:
 * wall-time:     0 d,  0 h,  0 min,  0.195 sec
 *  cpu-time:     0 d,  0 h,  0 min,  1.548 sec
 * ratio c/w:     7.941 speedup
 ANC optimizer:
 * wall-time:     0 d,  0 h,  0 min,  0.638 sec
 *  cpu-time:     0 d,  0 h,  0 min,  5.058 sec
 * ratio c/w:     7.933 speedup

