2022-11-03:12:47:04,389 INFO     [psi4.driver.task_planner:266] PLANNING Atomic:  keywords={'FREEZE_CORE': 'TRUE', 'function_kwargs': {}}
2022-11-03:12:47:04,394 INFO     [psi4.driver.driver:499] Compute energy(): method=wb97x-d, basis=6-311+g*, molecule=default, nre=48.02992139971736
2022-11-03:12:47:07,371 INFO     [psi4.driver.driver:502] Return energy(): -96.20642342203006
o,
    A. Alenaizan, A. M. James, S. Lehtola, J. P. Misiewicz, M. Scheurer,
    R. A. Shaw, J. B. Schriber, Y. Xie, Z. L. Glick, D. A. Sirianni,
    J. S. O'Brien, J. M. Waldrop, A. Kumar, E. G. Hohenstein,
    B. P. Pritchard, B. R. Brooks, H. F. Schaefer III, A. Yu. Sokolov,
    K. Patkowski, A. E. DePrince III, U. Bozkaya, R. A. King,
    F. A. Evangelista, J. M. Turney, T. D. Crawford, C. D. Sherrill,
    J. Chem. Phys. 152(18) 184108 (2020). https://doi.org/10.1063/5.0006002

                            Additional Code Authors
    E. T. Seidl, C. L. Janssen, E. F. Valeev, M. L. Leininger,
    J. F. Gonthier, R. M. Richard, H. R. McAlexander, M. Saitow, X. Wang,
    P. Verma, M. H. Lechner, and A. Jiang

             Previous Authors, Complete List of Code Contributors,
                       and Citations for Specific Modules
    https://github.com/psi4/psi4/blob/master/codemeta.json
    https://github.com/psi4/psi4/graphs/contributors
    http://psicode.org/psi4manual/master/introduction.html#citing-psifour

    -----------------------------------------------------------------------


    Psi4 started on: Thursday, 03 November 2022 12:47PM

    Process ID: 7924
    Host:       DESKTOP-26BCFJT
    PSIDATADIR: /home/chase/psi4conda/share/psi4
    Memory:     500.0 MiB
    Threads:    1
    
  ==> Input File <==

--------------------------------------------------------------------------
molecule { 
1 1
 C    0.766423   -0.061639    0.089538
 N   -0.703516    0.056847   -0.081670
 H   -1.195512   -0.464304    0.656622
 H   -0.993798    1.042769   -0.032277
 H   -0.991768   -0.321614   -0.994039
 H    1.065822   -1.106147    0.036172
 H    1.279651    0.491526   -0.694098
 H    1.063694    0.340221    1.055779
}
memory 1GB
set_num_threads(2)
psi4_io.set_default_path("/home/chase/temp/Psi4-mamm")
set freeze_core True
E, wfn = energy('wb97x-d/6-311+G*',return_wfn=True)
oeprop(wfn,"WIBERG_LOWDIN_INDICES")
clean()
--------------------------------------------------------------------------

  Memory set to 953.674 MiB by Python driver.
  Threads set to 2 by Python driver.

Scratch directory: /home/chase/temp/Psi4-mamm/

*** tstart() called on DESKTOP-26BCFJT
*** at Thu Nov  3 12:47:04 2022

   => Loading Basis Set <=

    Name: 6-311+G*
    Role: ORBITAL
    Keyword: BASIS
    atoms 1   entry C          line   130 file /home/chase/psi4conda/share/psi4/basis/6-311pgs.gbs 
    atoms 2   entry N          line   151 file /home/chase/psi4conda/share/psi4/basis/6-311pgs.gbs 
    atoms 3-8 entry H          line    47 file /home/chase/psi4conda/share/psi4/basis/6-311pgs.gbs 

   => WB97X-D: Empirical Dispersion <=

    Chai and Head-Gordon Dispersion Correction
    Chai, J.-D.; Head-Gordon, M. (2010), J. Chem. Phys., 132: 6615-6620

        s6 =       1.000000


         ---------------------------------------------------------
                                   SCF
               by Justin Turney, Rob Parrish, Andy Simmonett
                          and Daniel G. A. Smith
                              RKS Reference
                        2 Threads,    953 MiB Core
         ---------------------------------------------------------

  ==> Geometry <==

    Molecular point group: c1
    Full point group: C1

    Geometry (in Angstrom), charge = 1, multiplicity = 1:

       Center              X                  Y                   Z               Mass       
    ------------   -----------------  -----------------  -----------------  -----------------
         C            0.779665948115    -0.062845814266     0.090810876070    12.000000000000
         N           -0.690273051885     0.055640185734    -0.080397123930    14.003074004430
         H           -1.182269051885    -0.465510814266     0.657894876070     1.007825032230
         H           -0.980555051885     1.041562185734    -0.031004123930     1.007825032230
         H           -0.978525051885    -0.322820814266    -0.992766123930     1.007825032230
         H            1.079064948115    -1.107353814266     0.037444876070     1.007825032230
         H            1.292893948115     0.490319185734    -0.692825123930     1.007825032230
         H            1.076936948115     0.339014185734     1.057051876070     1.007825032230

  Running in c1 symmetry.

  Rotational constants: A =      2.82636  B =      0.68286  C =      0.68286 [cm^-1]
  Rotational constants: A =  84732.04789  B =  20471.56492  C =  20471.54326 [MHz]
  Nuclear repulsion =   48.029921399717360

  Charge       = 1
  Multiplicity = 1
  Electrons    = 18
  Nalpha       = 9
  Nbeta        = 9

  ==> Algorithm <==

  SCF Algorithm Type is DF.
  DIIS enabled.
  MOM disabled.
  Fractional occupation disabled.
  Guess Type is SAD.
  Energy threshold   = 1.00e-06
  Density threshold  = 1.00e-06
  Integral threshold = 1.00e-12

  ==> Primary Basis <==

  Basis Set: 6-311+G*
    Blend: 6-311+G*
    Number of shells: 38
    Number of basis functions: 62
    Number of Cartesian functions: 64
    Spherical Harmonics?: true
    Max angular momentum: 2

  ==> DFT Potential <==

   => LibXC <=

    Version 5.1.5
    S. Lehtola, C. Steigemann, M. J. Oliveira, and M. A. Marques, SoftwareX 7, 1 (2018) (10.1016/j.softx.2017.11.002)

   => Composite Functional: WB97X-D <= 

    wB97X-D Hyb-GGA Exchange-Correlation Functional

    J.-D. Chai and M. Head-Gordon, Phys. Chem. Chem. Phys. 10, 6615 (2008) (10.1039/B810189B)

    Deriv               =              1
    GGA                 =           TRUE
    Meta                =          FALSE

    Exchange Hybrid     =           TRUE
    MP2 Hybrid          =          FALSE

   => Exchange-Correlation Functionals <=

    1.0000   wB97X-D range-separated functional

   => Exact (HF) Exchange <=

    0.7780            HF,LR [omega = 0.2000]
    0.2220               HF 

   => LibXC Density Thresholds  <==

    XC_HYB_GGA_XC_WB97X_D:  1.00E-14 

   => Molecular Quadrature <=

    Radial Scheme          =       TREUTLER
    Pruning Scheme         =           NONE
    Nuclear Scheme         =       TREUTLER

    Blocking Scheme        =         OCTREE
    BS radius alpha        =              1
    Pruning alpha          =              1
    Radial Points          =             75
    Spherical Points       =            302
    Total Points           =         174140
    Total Blocks           =           1370
    Max Points             =            256
    Max Functions          =             62
    Weights Tolerance      =       1.00E-15

   => Loading Basis Set <=

    Name: (6-311+G* AUX)
    Role: JKFIT
    Keyword: DF_BASIS_SCF
    atoms 1   entry C          line   200 file /home/chase/psi4conda/share/psi4/basis/heavy-aug-cc-pvtz-jkfit.gbs 
    atoms 2   entry N          line   262 file /home/chase/psi4conda/share/psi4/basis/heavy-aug-cc-pvtz-jkfit.gbs 
    atoms 3-8 entry H          line   116 file /home/chase/psi4conda/share/psi4/basis/heavy-aug-cc-pvtz-jkfit.gbs 

  ==> Integral Setup <==

  DFHelper Memory: AOs need 0.035 GiB; user supplied 0.406 GiB. Using in-core AOs.

  ==> MemDFJK: Density-Fitted J/K Matrices <==

    J tasked:                   Yes
    K tasked:                   Yes
    wK tasked:                  Yes
    Omega:                2.000E-01
    OpenMP threads:               2
    Memory [MiB]:               415
    Algorithm:                 Core
    Schwarz Cutoff:           1E-12
    Mask sparsity (%):       0.0000
    Fitting Condition:        1E-10

   => Auxiliary Basis Set <=

  Basis Set: (6-311+G* AUX)
    Blend: HEAVY-AUG-CC-PVTZ-JKFIT
    Number of shells: 120
    Number of basis functions: 388
    Number of Cartesian functions: 472
    Spherical Harmonics?: true
    Max angular momentum: 4

  Cached 100.0% of DFT collocation blocks in 0.293 [GiB].

  Minimum eigenvalue in the overlap matrix is 7.5514387630E-04.
  Reciprocal condition number of the overlap matrix is 9.1235802785E-05.
    Using symmetric orthogonalization.

  ==> Pre-Iterations <==

  SCF Guess: Superposition of Atomic Densities via on-the-fly atomic UHF (no occupation information).

   -------------------------
    Irrep   Nso     Nmo    
   -------------------------
     A         62      62 
   -------------------------
    Total      62      62
   -------------------------

  ==> Iterations <==

                           Total Energy        Delta E     RMS |[F,P]|

   @DF-RKS iter SAD:   -96.08029539475297   -9.60803e+01   0.00000e+00 
   @DF-RKS iter   1:   -96.09052679429247   -1.02314e-02   7.98531e-03 DIIS/ADIIS
   @DF-RKS iter   2:   -96.14954608732566   -5.90193e-02   5.92601e-03 DIIS/ADIIS
   @DF-RKS iter   3:   -96.20547578068800   -5.59297e-02   7.02529e-04 DIIS/ADIIS
   @DF-RKS iter   4:   -96.20626138941327   -7.85609e-04   3.12826e-04 DIIS/ADIIS
   @DF-RKS iter   5:   -96.20641917951097   -1.57790e-04   4.51658e-05 DIIS
   @DF-RKS iter   6:   -96.20642332687819   -4.14737e-06   5.70281e-06 DIIS
   @DF-RKS iter   7:   -96.20642342203006   -9.51519e-08   7.46215e-07 DIIS
  Energy and wave function converged.


  ==> Post-Iterations <==

   Electrons on quadrature grid:
      Ntotal   =   18.0000166807 ; deviation = 1.668e-05 

    Orbital Energies [Eh]
    ---------------------

    Doubly Occupied:                                                      

       1A    -14.784192     2A    -10.540447     3A     -1.331630  
       4A     -1.033523     5A     -0.902229     6A     -0.902228  
       7A     -0.801514     8A     -0.707505     9A     -0.707500  

    Virtual:                                                              

      10A     -0.138358    11A     -0.073727    12A     -0.070740  
      13A     -0.070739    14A     -0.020320    15A     -0.004344  
      16A     -0.004342    17A      0.002688    18A      0.002690  
      19A      0.028041    20A      0.043620    21A      0.043624  
      22A      0.048357    23A      0.102230    24A      0.195939  
      25A      0.282962    26A      0.282964    27A      0.344928  
      28A      0.344935    29A      0.378095    30A      0.457937  
      31A      0.457942    32A      0.463004    33A      0.530861  
      34A      0.563898    35A      0.563902    36A      0.626424  
      37A      0.753382    38A      1.061185    39A      1.120563  
      40A      1.120591    41A      1.422659    42A      1.422666  
      43A      1.542298    44A      1.801257    45A      1.801264  
      46A      1.870709    47A      1.870730    48A      2.080911  
      49A      2.340626    50A      2.369323    51A      2.369330  
      52A      2.452857    53A      2.594309    54A      2.594310  
      55A      2.993478    56A      2.993487    57A      3.126724  
      58A      3.783091    59A      3.783095    60A      4.250927  
      61A     23.389156    62A     35.154675  

    Final Occupation by Irrep:
              A 
    DOCC [     9 ]

  @DF-RKS Final Energy:   -96.20642342203006

   => Energetics <=

    Nuclear Repulsion Energy =             48.0299213997173595
    One-Electron Energy =                -218.4748013051669489
    Two-Electron Energy =                  83.9812675615057884
    DFT Exchange-Correlation Energy =      -9.7409284210763118
    Empirical Dispersion Energy =          -0.0018826570099457
    VV10 Nonlocal Energy =                  0.0000000000000000
    Total Energy =                        -96.2064234220300563

Computation Completed


Properties will be evaluated at   0.000000,   0.000000,   0.000000 [a0]

Properties computed using the SCF density matrix


 Multipole Moments:

 ------------------------------------------------------------------------------------
     Multipole            Electronic (a.u.)      Nuclear  (a.u.)        Total (a.u.)
 ------------------------------------------------------------------------------------

 L = 1.  Multiply by 2.5417464519 to convert [e a0] to [Debye]
 Dipole X            :         -1.1600275            0.2903205           -0.8697070
 Dipole Y            :          0.0934681           -0.0234014            0.0700667
 Dipole Z            :         -0.1350898            0.0337914           -0.1012983
 Magnitude           :                                                    0.8783854

 ------------------------------------------------------------------------------------

*** tstop() called on DESKTOP-26BCFJT at Thu Nov  3 12:47:07 2022
Module time:
	user time   =       5.43 seconds =       0.09 minutes
	system time =       0.34 seconds =       0.01 minutes
	total time  =          3 seconds =       0.05 minutes
Total time:
	user time   =       5.43 seconds =       0.09 minutes
	system time =       0.34 seconds =       0.01 minutes
	total time  =          3 seconds =       0.05 minutes


Properties will be evaluated at   0.000000,   0.000000,   0.000000 [a0]
OEProp: No title given, name of density matrix used for the following properties is 'SCF density'


  Wiberg Bond Indices using Orthogonal Lowdin Orbitals:

  Irrep: 1 Size: 8 x 8

                 1                   2                   3                   4                   5

    1     0.00000000000000     1.22708662352916     0.03255988685622     0.03255987914991     0.03255933066582
    2     1.22708662352916     0.00000000000000     0.85595065801265     0.85595421296044     0.85594895289793
    3     0.03255988685622     0.85595065801265     0.00000000000000     0.00819998555580     0.00819996777869
    4     0.03255987914991     0.85595421296044     0.00819998555580     0.00000000000000     0.00819997613819
    5     0.03255933066582     0.85594895289793     0.00819996777869     0.00819997613819     0.00000000000000
    6     0.90627171446996     0.04360159442696     0.00341096203527     0.00945348782622     0.00341116391183
    7     0.90627490769893     0.04360278418490     0.00945320093859     0.00341140303673     0.00341098519989
    8     0.90627259057435     0.04360222873703     0.00341111560328     0.00341087643804     0.00945329748064

                 6                   7                   8

    1     0.90627171446996     0.90627490769893     0.90627259057435
    2     0.04360159442696     0.04360278418490     0.04360222873703
    3     0.00341096203527     0.00945320093859     0.00341111560328
    4     0.00945348782622     0.00341140303673     0.00341087643804
    5     0.00341116391183     0.00341098519989     0.00945329748064
    6     0.00000000000000     0.01054278226303     0.01054353291545
    7     0.01054278226303     0.00000000000000     0.01054289938037
    8     0.01054353291545     0.01054289938037     0.00000000000000



  Atomic Valences: 

 #  #
 Irrep: 1
      1:    4.043584932944331
      2:    3.925747054749060
      3:    0.921185776780489
      4:    0.921189821105317
      5:    0.921183674072984
      6:    0.987235237848717
      7:    0.987238962702431
      8:    0.987236541129159


    Psi4 stopped on: Thursday, 03 November 2022 12:47PM
    Psi4 wall time for execution: 0:00:03.02

*** Psi4 exiting successfully. Buy a developer a beer!
