      -----------------------------------------------------------      
     |                   =====================                   |     
     |                           x T B                           |     
     |                   =====================                   |     
     |                         S. Grimme                         |     
     |          Mulliken Center for Theoretical Chemistry        |     
     |                    University of Bonn                     |     
      -----------------------------------------------------------      

   * xtb version 6.5.1 (b24c23e) compiled by 'conda@728c89f4b128' on 2022-07-12

   xtb is free software: you can redistribute it and/or modify it under
   the terms of the GNU Lesser General Public License as published by
   the Free Software Foundation, either version 3 of the License, or
   (at your option) any later version.
   
   xtb is distributed in the hope that it will be useful,
   but WITHOUT ANY WARRANTY; without even the implied warranty of
   MERCHANTABILITY or FITNESS FOR A PARTICULAR PURPOSE.  See the
   GNU Lesser General Public License for more details.
   
   Cite this work as:
   * C. Bannwarth, E. Caldeweyher, S. Ehlert, A. Hansen, P. Pracht,
     J. Seibert, S. Spicher, S. Grimme, WIREs Comput. Mol. Sci., 2020, 11,
     e01493. DOI: 10.1002/wcms.1493
   
   for GFN2-xTB:
   * C. Bannwarth, S. Ehlert and S. Grimme., J. Chem. Theory Comput., 2019,
     15, 1652-1671. DOI: 10.1021/acs.jctc.8b01176
   for GFN1-xTB:
   * S. Grimme, C. Bannwarth, P. Shushkov, J. Chem. Theory Comput., 2017,
     13, 1989-2009. DOI: 10.1021/acs.jctc.7b00118
   for GFN0-xTB:
   * P. Pracht, E. Caldeweyher, S. Ehlert, S. Grimme, ChemRxiv, 2019, preprint.
     DOI: 10.26434/chemrxiv.8326202.v1
   for GFN-FF:
   * S. Spicher and S. Grimme, Angew. Chem. Int. Ed., 2020, 59, 15665-15673.
     DOI: 10.1002/anie.202004239
   
   for ALPB and GBSA implicit solvation:
   * S. Ehlert, M. Stahn, S. Spicher, S. Grimme, J. Chem. Theory Comput.,
     2021, 17, 4250-4261. DOI: 10.1021/acs.jctc.1c00471
   
   for DFT-D4:
   * E. Caldeweyher, C. Bannwarth and S. Grimme, J. Chem. Phys., 2017,
     147, 034112. DOI: 10.1063/1.4993215
   * E. Caldeweyher, S. Ehlert, A. Hansen, H. Neugebauer, S. Spicher,
     C. Bannwarth and S. Grimme, J. Chem. Phys., 2019, 150, 154122.
     DOI: 10.1063/1.5090222
   * E. Caldeweyher, J.-M. Mewes, S. Ehlert and S. Grimme, Phys. Chem. Chem. Phys.
     2020, 22, 8499-8512. DOI: 10.1039/D0CP00502A
   
   for sTDA-xTB:
   * S. Grimme and C. Bannwarth, J. Chem. Phys., 2016, 145, 054103.
     DOI: 10.1063/1.4959605
   
   in the mass-spec context:
   * V. Asgeirsson, C. Bauer and S. Grimme, Chem. Sci., 2017, 8, 4879.
     DOI: 10.1039/c7sc00601b
   * J. Koopman and S. Grimme, ACS Omega 2019, 4, 12, 15120-15133.
     DOI: 10.1021/acsomega.9b02011
   
   for metadynamics refer to:
   * S. Grimme, J. Chem. Theory Comput., 2019, 155, 2847-2862
     DOI: 10.1021/acs.jctc.9b00143
   
   for SPH calculations refer to:
   * S. Spicher and S. Grimme, J. Chem. Theory Comput., 2021, 17, 1701-1714
     DOI: 10.1021/acs.jctc.0c01306
   
   with help from (in alphabetical order)
   P. Atkinson, C. Bannwarth, F. Bohle, G. Brandenburg, E. Caldeweyher
   M. Checinski, S. Dohm, S. Ehlert, S. Ehrlich, I. Gerasimov, C. Hölzer
   A. Katbashev, J. Koopman, C. Lavigne, S. Lehtola, F. März, M. Müller,
   F. Musil, H. Neugebauer, J. Pisarek, C. Plett, P. Pracht, F. Pultar,
   J. Seibert, P. Shushkov, S. Spicher, M. Stahn, M. Steiner, T. Strunk,
   J. Stückrath, T. Rose, and J. Unsleber
   
 * started run on 2022/11/03 at 12:46:12.981     

           -------------------------------------------------
          |                Calculation Setup                |
           -------------------------------------------------

          program call               : /home/chase/psi4conda/envs/xtbenv/bin/xtb --gfn 2 --chrg 1 --uhf 0 mamm-opt-1-2-210_preQMOPTprefit_xyzformat.xyz --opt --input xtb-opt-1-2-210_constr.txt
          coordinate file            : mamm-opt-1-2-210_preQMOPTprefit_xyzformat.xyz
          omp threads                :                     8

   ID    Z sym.   atoms
    1    6 C      1
    2    7 N      2
    3    1 H      3-8
constraining angle 7 1 2 5 to  209.9943979°, actual value: -150.0056021°

           -------------------------------------------------
          |                 G F N 2 - x T B                 |
           -------------------------------------------------

        Reference                      10.1021/acs.jctc.8b01176
      * Hamiltonian:
        H0-scaling (s, p, d)           1.850000    2.230000    2.230000
        zeta-weighting                 0.500000
      * Dispersion:
        s8                             2.700000
        a1                             0.520000
        a2                             5.000000
        s9                             5.000000
      * Repulsion:
        kExp                           1.500000    1.000000
        rExp                           1.000000
      * Coulomb:
        alpha                          2.000000
        third order                    shell-resolved
        anisotropic                    true
        a3                             3.000000
        a5                             4.000000
        cn-shift                       1.200000
        cn-exp                         4.000000
        max-rad                        5.000000

q/qsh data taken from xtbrestart
CAMM data taken from xtbrestart

          ...................................................
          :                      SETUP                      :
          :.................................................:
          :  # basis functions                  14          :
          :  # atomic orbitals                  14          :
          :  # shells                           10          :
          :  # electrons                        14          :
          :  max. iterations                   250          :
          :  Hamiltonian                  GFN2-xTB          :
          :  restarted?                       true          :
          :  GBSA solvation                  false          :
          :  PC potential                    false          :
          :  electronic temp.          300.0000000     K    :
          :  accuracy                    1.0000000          :
          :  -> integral cutoff          0.2500000E+02      :
          :  -> integral neglect         0.1000000E-07      :
          :  -> SCF convergence          0.1000000E-05 Eh   :
          :  -> wf. convergence          0.1000000E-03 e    :
          :  Broyden damping             0.4000000          :
          ...................................................

 iter      E             dE          RMSdq      gap      omega  full diag
   1     -7.7692187 -0.776922E+01  0.470E-01   10.61       0.0  T
   2     -7.7692869 -0.681813E-04  0.273E-01   10.63       1.0  T
   3     -7.7692883 -0.141066E-05  0.549E-02   10.62       1.0  T
   4     -7.7692893 -0.956367E-06  0.737E-03   10.62       4.8  T
   5     -7.7692893 -0.607663E-09  0.521E-04   10.62      67.8  T
   6     -7.7692893 -0.335762E-09  0.116E-04   10.62     305.8  T

   *** convergence criteria satisfied after 6 iterations ***

         #    Occupation            Energy/Eh            Energy/eV
      -------------------------------------------------------------
         1        2.0000           -0.9097203             -24.7548
         2        2.0000           -0.8535042             -23.2250
         3        2.0000           -0.8152412             -22.1838
         4        2.0000           -0.8151440             -22.1812
         5        2.0000           -0.7568370             -20.5946
         6        2.0000           -0.6856916             -18.6586
         7        2.0000           -0.6855344             -18.6543 (HOMO)
         8                         -0.2953453              -8.0368 (LUMO)
         9                         -0.1705289              -4.6403
        10                         -0.1222361              -3.3262
        11                         -0.1216438              -3.3101
        12                         -0.0501171              -1.3638
       ...                                ...                  ...
        14                          0.0301591               0.8207
      -------------------------------------------------------------
                  HL-Gap            0.3901891 Eh           10.6176 eV
             Fermi-level           -0.4904399 Eh          -13.3455 eV

 SCC (total)                   0 d,  0 h,  0 min,  0.157 sec
 SCC setup                      ...        0 min,  0.006 sec (  3.751%)
 Dispersion                     ...        0 min,  0.015 sec (  9.835%)
 classical contributions        ...        0 min,  0.009 sec (  5.866%)
 integral evaluation            ...        0 min,  0.022 sec ( 14.210%)
 iterations                     ...        0 min,  0.072 sec ( 45.761%)
 molecular gradient             ...        0 min,  0.032 sec ( 20.452%)
 printout                       ...        0 min,  0.000 sec (  0.114%)

         :::::::::::::::::::::::::::::::::::::::::::::::::::::
         ::                     SUMMARY                     ::
         :::::::::::::::::::::::::::::::::::::::::::::::::::::
         :: total energy              -7.663659653606 Eh    ::
         :: gradient norm              0.017957139598 Eh/a0 ::
         :: HOMO-LUMO gap             10.617585872618 eV    ::
         ::.................................................::
         :: SCC energy                -7.769289254437 Eh    ::
         :: -> isotropic ES            0.119180164328 Eh    ::
         :: -> anisotropic ES         -0.011648824638 Eh    ::
         :: -> anisotropic XC          0.007837142470 Eh    ::
         :: -> dispersion             -0.001374402842 Eh    ::
         :: repulsion energy           0.105629449570 Eh    ::
         :: add. restraining           0.000000000000 Eh    ::
         :: total charge               1.000000000000 e     ::
         :::::::::::::::::::::::::::::::::::::::::::::::::::::

      ----------------------------------------------------------- 
     |                   =====================                   |
     |                        A N C O P T                        |
     |                   =====================                   |
     |               Approximate Normal Coordinate               |
     |                Rational Function Optimizer                |
      ----------------------------------------------------------- 

          ...................................................
          :                      SETUP                      :
          :.................................................:
          :   optimization level            normal          :
          :   max. optcycles                   200          :
          :   ANC micro-cycles                  20          :
          :   degrees of freedom                18          :
          :.................................................:
          :   RF solver                   davidson          :
          :   write xtbopt.log                true          :
          :   linear?                        false          :
          :   energy convergence         0.5000000E-05 Eh   :
          :   grad. convergence          0.1000000E-02 Eh/α :
          :   maximium RF displ.         1.0000000          :
          :   Hlow (freq-cutoff)         0.1000000E-01      :
          :   Hmax (freq-cutoff)         5.0000000          :
          :   S6 in model hess.         20.0000000          :
          ...................................................

generating ANC from model Hessian ...
Using Lindh-Hessian (1995)
 Shifting diagonal of input Hessian by    0.0000000000000000     
 Lowest  eigenvalues of input Hessian
    0.000000    0.000000    0.000000    0.000000    0.000000    0.000000
    0.038590    0.046168    0.063638    0.066408    0.093733    0.102145
    0.141144    0.174488    0.202418    0.226839    0.382696    0.723784
 Highest eigenvalues
    0.726565    1.118729    1.278068    1.359512    1.360557    6.527570


........................................................................
.............................. CYCLE    1 ..............................
........................................................................
   1     -7.7692893 -0.776929E+01  0.359E-05   10.62       0.0  T
   2     -7.7692893 -0.918376E-12  0.188E-05   10.62    1881.0  T
   3     -7.7692893 -0.426326E-13  0.640E-06   10.62    5521.9  T
     SCC iter.                  ...        0 min,  0.058 sec
     gradient                   ...        0 min,  0.037 sec
 * total energy  :    -7.6636597 Eh     change       -0.5118572E-11 Eh
   gradient norm :     0.0179567 Eh/α   predicted     0.0000000E+00 (-100.00%)
   displ. norm   :     0.0715820 α      lambda       -0.9973742E-03
   maximum displ.:     0.0547770 α      in ANC's #10, #1, #3, ...

........................................................................
.............................. CYCLE    2 ..............................
........................................................................
   1     -7.7728713 -0.777287E+01  0.176E-01   10.87       0.0  T
   2     -7.7728998 -0.284608E-04  0.928E-02   10.85       1.0  T
   3     -7.7729002 -0.398562E-06  0.356E-02   10.86       1.0  T
   4     -7.7729003 -0.140229E-06  0.355E-03   10.86       9.9  T
   5     -7.7729003 -0.988202E-09  0.913E-04   10.86      38.7  T
   6     -7.7729003 -0.142427E-09  0.134E-04   10.86     263.7  T
     SCC iter.                  ...        0 min,  0.068 sec
     gradient                   ...        0 min,  0.033 sec
 * total energy  :    -7.6643336 Eh     change       -0.6738966E-03 Eh
   gradient norm :     0.0079124 Eh/α   predicted    -0.5012426E-03 ( -25.62%)
   displ. norm   :     0.0512521 α      lambda       -0.2436308E-03
   maximum displ.:     0.0299739 α      in ANC's #1, #10, #3, ...

........................................................................
.............................. CYCLE    3 ..............................
........................................................................
   1     -7.7739926 -0.777399E+01  0.915E-02   11.03       0.0  T
   2     -7.7740017 -0.909817E-05  0.484E-02   11.02       1.0  T
   3     -7.7740018 -0.138769E-06  0.192E-02   11.02       1.8  T
   4     -7.7740019 -0.356704E-07  0.199E-03   11.02      17.8  T
   5     -7.7740019 -0.567707E-09  0.729E-04   11.02      48.5  T
   6     -7.7740019 -0.569260E-10  0.696E-05   11.02     508.3  T
     SCC iter.                  ...        0 min,  0.074 sec
     gradient                   ...        0 min,  0.033 sec
 * total energy  :    -7.6644577 Eh     change       -0.1241993E-03 Eh
   gradient norm :     0.0010595 Eh/α   predicted    -0.1221351E-03 (  -1.66%)
   displ. norm   :     0.0142100 α      lambda       -0.6059796E-05
   maximum displ.:     0.0105224 α      in ANC's #1, #3, #4, ...

........................................................................
.............................. CYCLE    4 ..............................
........................................................................
   1     -7.7737517 -0.777375E+01  0.129E-02   11.02       0.0  T
   2     -7.7737518 -0.279718E-07  0.744E-03   11.02       4.8  T
   3     -7.7737518 -0.424321E-08  0.778E-04   11.02      45.4  T
   4     -7.7737518 -0.238444E-09  0.305E-04   11.02     115.8  T
     SCC iter.                  ...        0 min,  0.047 sec
     gradient                   ...        0 min,  0.033 sec
 * total energy  :    -7.6644626 Eh     change       -0.4848224E-05 Eh
   gradient norm :     0.0007468 Eh/α   predicted    -0.3029699E-05 ( -37.51%)
   displ. norm   :     0.0061124 α      lambda       -0.1156510E-05
   maximum displ.:     0.0035221 α      in ANC's #1, #3, #4, ...

   *** GEOMETRY OPTIMIZATION CONVERGED AFTER 4 ITERATIONS ***

------------------------------------------------------------------------
 total energy gain   :        -0.0008029 Eh       -0.5039 kcal/mol
 total RMSD          :         0.0450283 a0        0.0238 Å
 total power (kW/mol):        -0.5270324 (step)   -4.0415 (real)
------------------------------------------------------------------------

 ANCopt (total)                0 d,  0 h,  0 min,  0.522 sec
 optimizer setup                ...        0 min,  0.000 sec (  0.010%)
 model hessian                  ...        0 min,  0.003 sec (  0.658%)
 ANC generation                 ...        0 min,  0.000 sec (  0.029%)
 coordinate transformation      ...        0 min,  0.000 sec (  0.002%)
 single point calculation       ...        0 min,  0.507 sec ( 97.122%)
 optimization log               ...        0 min,  0.000 sec (  0.054%)
 hessian update                 ...        0 min,  0.011 sec (  2.030%)
 rational function              ...        0 min,  0.000 sec (  0.057%)

================
 final structure:
================
8
 xtb: 6.5.1 (b24c23e)
C            0.76737035998413       -0.05189269210811        0.10267327776976
N           -0.70756720551028        0.04354280341054       -0.08006003388209
H           -0.98839637362418       -0.41799988515482       -0.95570895127948
H           -1.20748972089394       -0.40925442255077        0.69562534004363
H           -1.00403197442073        1.02586259282252       -0.14677662388734
H            1.02666557304994       -0.01698437231725        1.15748448909231
H            1.14504695566796       -0.97289604832044       -0.33505237040874
H            1.25939837574711        0.77728302421833       -0.40216013744804

 Bond Distances (Angstroems)
 ---------------------------
C1-N2=1.4893         C1-H6=1.0868         C1-H7=1.0874         C1-H8=1.0883         N2-C1=1.4893         N2-H3=1.0289         
N2-H4=1.0279         N2-H5=1.0282         H3-N2=1.0289         H4-N2=1.0279         H5-N2=1.0282         H6-C1=1.0868         
H7-C1=1.0874         H8-C1=1.0883         
 C  H  Rav=1.0875 sigma=0.0006  Rmin=1.0868  Rmax=1.0883     3
 N  H  Rav=1.0284 sigma=0.0004  Rmin=1.0279  Rmax=1.0289     3
 N  C  Rav=1.4893 sigma=0.0000  Rmin=1.4893  Rmax=1.4893     1

 selected bond angles (degree)
 --------------------
H6-C1-N2=110.69                H7-C1-N2=110.42                H7-C1-H6=109.57                H8-C1-N2=110.00                
H8-C1-H6=108.53                H8-C1-H7=107.55                H3-N2-C1=110.24                H4-N2-C1=111.15                
H4-N2-H3=108.17                H5-N2-C1=110.78                H5-N2-H3=107.14                H5-N2-H4=109.24                

 selected dihedral angles (degree)
 ---------------------------------
H3-N2-C1-H6=206.82            H3-N2-C1-H7=328.34            H3-N2-C1-H8= 86.88            H4-N2-C1-H6=326.76            
H4-N2-C1-H7= 88.28            H4-N2-C1-H8=206.82            H5-N2-C1-H6= 88.41            H5-N2-C1-H7=209.93            
H5-N2-C1-H8=328.47            
           -------------------------------------------------
          |                Final Singlepoint                |
           -------------------------------------------------

          ...................................................
          :                      SETUP                      :
          :.................................................:
          :  # basis functions                  14          :
          :  # atomic orbitals                  14          :
          :  # shells                           10          :
          :  # electrons                        14          :
          :  max. iterations                   250          :
          :  Hamiltonian                  GFN2-xTB          :
          :  restarted?                      false          :
          :  GBSA solvation                  false          :
          :  PC potential                    false          :
          :  electronic temp.          300.0000000     K    :
          :  accuracy                    1.0000000          :
          :  -> integral cutoff          0.2500000E+02      :
          :  -> integral neglect         0.1000000E-07      :
          :  -> SCF convergence          0.1000000E-05 Eh   :
          :  -> wf. convergence          0.1000000E-03 e    :
          :  Broyden damping             0.4000000          :
          ...................................................

 iter      E             dE          RMSdq      gap      omega  full diag
   1     -7.7737518 -0.777375E+01  0.371E-05   11.02       0.0  T
   2     -7.7737518 -0.677680E-12  0.203E-05   11.02    1743.7  T
   3     -7.7737518 -0.141220E-12  0.377E-06   11.02    9366.8  T

   *** convergence criteria satisfied after 3 iterations ***

         #    Occupation            Energy/Eh            Energy/eV
      -------------------------------------------------------------
         1        2.0000           -0.9126711             -24.8350
         2        2.0000           -0.8550188             -23.2662
         3        2.0000           -0.8183743             -22.2691
         4        2.0000           -0.8171883             -22.2368
         5        2.0000           -0.7596092             -20.6700
         6        2.0000           -0.6853928             -18.6505
         7        2.0000           -0.6838548             -18.6086 (HOMO)
         8                         -0.2789237              -7.5899 (LUMO)
         9                         -0.1643076              -4.4710
        10                         -0.1211965              -3.2979
        11                         -0.1144927              -3.1155
        12                         -0.0318843              -0.8676
       ...                                ...                  ...
        14                          0.0367560               1.0002
      -------------------------------------------------------------
                  HL-Gap            0.4049311 Eh           11.0187 eV
             Fermi-level           -0.4813892 Eh          -13.0993 eV

 SCC (total)                   0 d,  0 h,  0 min,  0.096 sec
 SCC setup                      ...        0 min,  0.003 sec (  3.250%)
 Dispersion                     ...        0 min,  0.009 sec (  9.274%)
 classical contributions        ...        0 min,  0.003 sec (  3.646%)
 integral evaluation            ...        0 min,  0.011 sec ( 11.335%)
 iterations                     ...        0 min,  0.034 sec ( 35.183%)
 molecular gradient             ...        0 min,  0.036 sec ( 37.187%)
 printout                       ...        0 min,  0.000 sec (  0.111%)

         :::::::::::::::::::::::::::::::::::::::::::::::::::::
         ::                     SUMMARY                     ::
         :::::::::::::::::::::::::::::::::::::::::::::::::::::
         :: total energy              -7.664462597768 Eh    ::
         :: gradient norm              0.000746225054 Eh/a0 ::
         :: HOMO-LUMO gap             11.018736204681 eV    ::
         ::.................................................::
         :: SCC energy                -7.773751777483 Eh    ::
         :: -> isotropic ES            0.119622082763 Eh    ::
         :: -> anisotropic ES         -0.012009161973 Eh    ::
         :: -> anisotropic XC          0.007659717914 Eh    ::
         :: -> dispersion             -0.001377217413 Eh    ::
         :: repulsion energy           0.109285541225 Eh    ::
         :: add. restraining           0.000003494173 Eh    ::
         :: total charge               1.000000000000 e     ::
         :::::::::::::::::::::::::::::::::::::::::::::::::::::

           -------------------------------------------------
          |                Property Printout                |
           -------------------------------------------------

    * Orbital Energies and Occupations

         #    Occupation            Energy/Eh            Energy/eV
      -------------------------------------------------------------
         1        2.0000           -0.9126711             -24.8350
         2        2.0000           -0.8550188             -23.2662
         3        2.0000           -0.8183743             -22.2691
         4        2.0000           -0.8171883             -22.2368
         5        2.0000           -0.7596092             -20.6700
         6        2.0000           -0.6853928             -18.6505
         7        2.0000           -0.6838548             -18.6086 (HOMO)
         8                         -0.2789237              -7.5899 (LUMO)
         9                         -0.1643076              -4.4710
        10                         -0.1211965              -3.2979
        11                         -0.1144927              -3.1155
        12                         -0.0318843              -0.8676
        13                          0.0281150               0.7650
        14                          0.0367560               1.0002
      -------------------------------------------------------------
                  HL-Gap            0.4049311 Eh           11.0187 eV
             Fermi-level           -0.4813892 Eh          -13.0993 eV

     #   Z          covCN         q      C6AA      α(0)
     1   6 C        3.679    -0.101    22.671     6.820
     2   7 N        3.482    -0.111    23.409     7.186
     3   1 H        0.859     0.277     0.787     1.389
     4   1 H        0.859     0.278     0.784     1.387
     5   1 H        0.859     0.277     0.785     1.388
     6   1 H        0.925     0.128     1.550     1.947
     7   1 H        0.925     0.127     1.561     1.954
     8   1 H        0.925     0.126     1.568     1.958

 Mol. C6AA /au·bohr⁶  :        255.329586
 Mol. C8AA /au·bohr⁸  :       4969.960210
 Mol. α(0) /au        :         24.029454


Wiberg/Mayer (AO) data.
largest (>0.10) Wiberg bond orders for each atom

 ---------------------------------------------------------------------------
     #   Z sym  total        # sym  WBO       # sym  WBO       # sym  WBO
 ---------------------------------------------------------------------------
     1   6 C    3.875 --     8 H    0.974     7 H    0.974     6 H    0.974
                             2 N    0.952
     2   7 N    3.684 --     1 C    0.952     5 H    0.911     4 H    0.910
                             3 H    0.910
     3   1 H    0.923 --     2 N    0.910
     4   1 H    0.923 --     2 N    0.910
     5   1 H    0.923 --     2 N    0.911
     6   1 H    0.984 --     1 C    0.974
     7   1 H    0.984 --     1 C    0.974
     8   1 H    0.984 --     1 C    0.974
 ---------------------------------------------------------------------------

Topologies differ in total number of bonds
Writing topology from bond orders to xtbtopo.mol

molecular dipole:
                 x           y           z       tot (Debye)
 q only:       -0.854       0.053      -0.111
   full:       -1.073       0.068      -0.147       2.758
molecular quadrupole (traceless):
                xx          xy          yy          xz          yz          zz
 q only:        2.679      -0.250      -1.381       0.507      -0.052      -1.299
  q+dip:        1.450      -0.126      -0.785       0.267      -0.045      -0.665
   full:        2.103      -0.188      -1.104       0.392      -0.052      -0.999

           -------------------------------------------------
          |                Geometry Summary                 |
           -------------------------------------------------

      molecular mass/u    :       32.0650836
   center of mass at/Å    :       -0.0143762      -0.0008570       0.0039084
  moments of inertia/u·Å² :        0.5940051E+01   0.2484200E+02   0.2488175E+02
rotational constants/cm⁻¹ :        0.2837961E+01   0.6785940E+00   0.6775100E+00

 * 7 selected distances

     #   Z          #   Z                                           value/Å
     1   6 C        2   7 N                                       1.4892752 (max)
     2   7 N        3   1 H                                       1.0289062
     2   7 N        4   1 H                                       1.0279279 (min)
     2   7 N        5   1 H                                       1.0282484
     1   6 C        6   1 H                                       1.0867748
     1   6 C        7   1 H                                       1.0874239
     1   6 C        8   1 H                                       1.0883386

 * 3 distinct bonds (by element types)

   Z      Z             #   av. dist./Å        max./Å        min./Å
   1 H    6 C           3     1.0875124     1.0883386     1.0867748
   1 H    7 N           3     1.0283608     1.0289062     1.0279279
   6 C    7 N           1     1.4892752     1.4892752     1.4892752


optimized geometry written to: xtbopt.xyz


           -------------------------------------------------
          | TOTAL ENERGY               -7.664462597768 Eh   |
          | GRADIENT NORM               0.000746225054 Eh/α |
          | HOMO-LUMO GAP              11.018736204681 eV   |
           -------------------------------------------------

------------------------------------------------------------------------
 * finished run on 2022/11/03 at 12:46:13.812     
------------------------------------------------------------------------
 total:
 * wall-time:     0 d,  0 h,  0 min,  0.831 sec
 *  cpu-time:     0 d,  0 h,  0 min,  6.626 sec
 * ratio c/w:     7.972 speedup
 SCF:
 * wall-time:     0 d,  0 h,  0 min,  0.157 sec
 *  cpu-time:     0 d,  0 h,  0 min,  1.251 sec
 * ratio c/w:     7.966 speedup
 ANC optimizer:
 * wall-time:     0 d,  0 h,  0 min,  0.618 sec
 *  cpu-time:     0 d,  0 h,  0 min,  4.930 sec
 * ratio c/w:     7.974 speedup

