      -----------------------------------------------------------      
     |                   =====================                   |     
     |                           x T B                           |     
     |                   =====================                   |     
     |                         S. Grimme                         |     
     |          Mulliken Center for Theoretical Chemistry        |     
     |                    University of Bonn                     |     
      -----------------------------------------------------------      

   * xtb version 6.5.1 (b24c23e) compiled by 'conda@728c89f4b128' on 2022-07-12

   xtb is free software: you can redistribute it and/or modify it under
   the terms of the GNU Lesser General Public License as published by
   the Free Software Foundation, either version 3 of the License, or
   (at your option) any later version.
   
   xtb is distributed in the hope that it will be useful,
   but WITHOUT ANY WARRANTY; without even the implied warranty of
   MERCHANTABILITY or FITNESS FOR A PARTICULAR PURPOSE.  See the
   GNU Lesser General Public License for more details.
   
   Cite this work as:
   * C. Bannwarth, E. Caldeweyher, S. Ehlert, A. Hansen, P. Pracht,
     J. Seibert, S. Spicher, S. Grimme, WIREs Comput. Mol. Sci., 2020, 11,
     e01493. DOI: 10.1002/wcms.1493
   
   for GFN2-xTB:
   * C. Bannwarth, S. Ehlert and S. Grimme., J. Chem. Theory Comput., 2019,
     15, 1652-1671. DOI: 10.1021/acs.jctc.8b01176
   for GFN1-xTB:
   * S. Grimme, C. Bannwarth, P. Shushkov, J. Chem. Theory Comput., 2017,
     13, 1989-2009. DOI: 10.1021/acs.jctc.7b00118
   for GFN0-xTB:
   * P. Pracht, E. Caldeweyher, S. Ehlert, S. Grimme, ChemRxiv, 2019, preprint.
     DOI: 10.26434/chemrxiv.8326202.v1
   for GFN-FF:
   * S. Spicher and S. Grimme, Angew. Chem. Int. Ed., 2020, 59, 15665-15673.
     DOI: 10.1002/anie.202004239
   
   for ALPB and GBSA implicit solvation:
   * S. Ehlert, M. Stahn, S. Spicher, S. Grimme, J. Chem. Theory Comput.,
     2021, 17, 4250-4261. DOI: 10.1021/acs.jctc.1c00471
   
   for DFT-D4:
   * E. Caldeweyher, C. Bannwarth and S. Grimme, J. Chem. Phys., 2017,
     147, 034112. DOI: 10.1063/1.4993215
   * E. Caldeweyher, S. Ehlert, A. Hansen, H. Neugebauer, S. Spicher,
     C. Bannwarth and S. Grimme, J. Chem. Phys., 2019, 150, 154122.
     DOI: 10.1063/1.5090222
   * E. Caldeweyher, J.-M. Mewes, S. Ehlert and S. Grimme, Phys. Chem. Chem. Phys.
     2020, 22, 8499-8512. DOI: 10.1039/D0CP00502A
   
   for sTDA-xTB:
   * S. Grimme and C. Bannwarth, J. Chem. Phys., 2016, 145, 054103.
     DOI: 10.1063/1.4959605
   
   in the mass-spec context:
   * V. Asgeirsson, C. Bauer and S. Grimme, Chem. Sci., 2017, 8, 4879.
     DOI: 10.1039/c7sc00601b
   * J. Koopman and S. Grimme, ACS Omega 2019, 4, 12, 15120-15133.
     DOI: 10.1021/acsomega.9b02011
   
   for metadynamics refer to:
   * S. Grimme, J. Chem. Theory Comput., 2019, 155, 2847-2862
     DOI: 10.1021/acs.jctc.9b00143
   
   for SPH calculations refer to:
   * S. Spicher and S. Grimme, J. Chem. Theory Comput., 2021, 17, 1701-1714
     DOI: 10.1021/acs.jctc.0c01306
   
   with help from (in alphabetical order)
   P. Atkinson, C. Bannwarth, F. Bohle, G. Brandenburg, E. Caldeweyher
   M. Checinski, S. Dohm, S. Ehlert, S. Ehrlich, I. Gerasimov, C. Hölzer
   A. Katbashev, J. Koopman, C. Lavigne, S. Lehtola, F. März, M. Müller,
   F. Musil, H. Neugebauer, J. Pisarek, C. Plett, P. Pracht, F. Pultar,
   J. Seibert, P. Shushkov, S. Spicher, M. Stahn, M. Steiner, T. Strunk,
   J. Stückrath, T. Rose, and J. Unsleber
   
 * started run on 2022/11/03 at 12:45:48.367     

           -------------------------------------------------
          |                Calculation Setup                |
           -------------------------------------------------

          program call               : /home/chase/psi4conda/envs/xtbenv/bin/xtb --gfn 2 --chrg 1 --uhf 0 mamm-opt-1-2-120_preQMOPTprefit_xyzformat.xyz --opt --input xtb-opt-1-2-120_constr.txt
          coordinate file            : mamm-opt-1-2-120_preQMOPTprefit_xyzformat.xyz
          omp threads                :                     8

   ID    Z sym.   atoms
    1    6 C      1
    2    7 N      2
    3    1 H      3-8
constraining angle 7 1 2 5 to  120.0009404°, actual value:  120.0009404°

           -------------------------------------------------
          |                 G F N 2 - x T B                 |
           -------------------------------------------------

        Reference                      10.1021/acs.jctc.8b01176
      * Hamiltonian:
        H0-scaling (s, p, d)           1.850000    2.230000    2.230000
        zeta-weighting                 0.500000
      * Dispersion:
        s8                             2.700000
        a1                             0.520000
        a2                             5.000000
        s9                             5.000000
      * Repulsion:
        kExp                           1.500000    1.000000
        rExp                           1.000000
      * Coulomb:
        alpha                          2.000000
        third order                    shell-resolved
        anisotropic                    true
        a3                             3.000000
        a5                             4.000000
        cn-shift                       1.200000
        cn-exp                         4.000000
        max-rad                        5.000000

q/qsh data taken from xtbrestart
CAMM data taken from xtbrestart

          ...................................................
          :                      SETUP                      :
          :.................................................:
          :  # basis functions                  14          :
          :  # atomic orbitals                  14          :
          :  # shells                           10          :
          :  # electrons                        14          :
          :  max. iterations                   250          :
          :  Hamiltonian                  GFN2-xTB          :
          :  restarted?                       true          :
          :  GBSA solvation                  false          :
          :  PC potential                    false          :
          :  electronic temp.          300.0000000     K    :
          :  accuracy                    1.0000000          :
          :  -> integral cutoff          0.2500000E+02      :
          :  -> integral neglect         0.1000000E-07      :
          :  -> SCF convergence          0.1000000E-05 Eh   :
          :  -> wf. convergence          0.1000000E-03 e    :
          :  Broyden damping             0.4000000          :
          ...................................................

 iter      E             dE          RMSdq      gap      omega  full diag
   1     -7.7672908 -0.776729E+01  0.494E-01   10.58       0.0  T
   2     -7.7673649 -0.741012E-04  0.287E-01   10.60       1.0  T
   3     -7.7673667 -0.179085E-05  0.577E-02   10.59       1.0  T
   4     -7.7673677 -0.101468E-05  0.842E-03   10.59       4.2  T
   5     -7.7673677 -0.199236E-08  0.171E-03   10.59      20.7  T
   6     -7.7673677 -0.846561E-09  0.174E-04   10.59     203.6  T
   7     -7.7673677 -0.161968E-10  0.337E-05   10.59    1050.1  T

   *** convergence criteria satisfied after 7 iterations ***

         #    Occupation            Energy/Eh            Energy/eV
      -------------------------------------------------------------
         1        2.0000           -0.9095035             -24.7488
         2        2.0000           -0.8532304             -23.2176
         3        2.0000           -0.8150951             -22.1799
         4        2.0000           -0.8150879             -22.1797
         5        2.0000           -0.7566889             -20.5906
         6        2.0000           -0.6850299             -18.6406
         7        2.0000           -0.6850072             -18.6400 (HOMO)
         8                         -0.2958579              -8.0507 (LUMO)
         9                         -0.1711320              -4.6567
        10                         -0.1298210              -3.5326
        11                         -0.1297282              -3.5301
        12                         -0.0490256              -1.3341
       ...                                ...                  ...
        14                          0.0379264               1.0320
      -------------------------------------------------------------
                  HL-Gap            0.3891493 Eh           10.5893 eV
             Fermi-level           -0.4904325 Eh          -13.3453 eV

 SCC (total)                   0 d,  0 h,  0 min,  0.175 sec
 SCC setup                      ...        0 min,  0.010 sec (  5.873%)
 Dispersion                     ...        0 min,  0.014 sec (  8.205%)
 classical contributions        ...        0 min,  0.007 sec (  4.182%)
 integral evaluation            ...        0 min,  0.020 sec ( 11.278%)
 iterations                     ...        0 min,  0.090 sec ( 51.771%)
 molecular gradient             ...        0 min,  0.033 sec ( 18.633%)
 printout                       ...        0 min,  0.000 sec (  0.050%)

         :::::::::::::::::::::::::::::::::::::::::::::::::::::
         ::                     SUMMARY                     ::
         :::::::::::::::::::::::::::::::::::::::::::::::::::::
         :: total energy              -7.661804228105 Eh    ::
         :: gradient norm              0.016817752128 Eh/a0 ::
         :: HOMO-LUMO gap             10.589290932931 eV    ::
         ::.................................................::
         :: SCC energy                -7.767367719075 Eh    ::
         :: -> isotropic ES            0.119228831078 Eh    ::
         :: -> anisotropic ES         -0.011436388052 Eh    ::
         :: -> anisotropic XC          0.007946442998 Eh    ::
         :: -> dispersion             -0.001374159490 Eh    ::
         :: repulsion energy           0.105563336350 Eh    ::
         :: add. restraining           0.000000000000 Eh    ::
         :: total charge               1.000000000000 e     ::
         :::::::::::::::::::::::::::::::::::::::::::::::::::::

      ----------------------------------------------------------- 
     |                   =====================                   |
     |                        A N C O P T                        |
     |                   =====================                   |
     |               Approximate Normal Coordinate               |
     |                Rational Function Optimizer                |
      ----------------------------------------------------------- 

          ...................................................
          :                      SETUP                      :
          :.................................................:
          :   optimization level            normal          :
          :   max. optcycles                   200          :
          :   ANC micro-cycles                  20          :
          :   degrees of freedom                18          :
          :.................................................:
          :   RF solver                   davidson          :
          :   write xtbopt.log                true          :
          :   linear?                        false          :
          :   energy convergence         0.5000000E-05 Eh   :
          :   grad. convergence          0.1000000E-02 Eh/α :
          :   maximium RF displ.         1.0000000          :
          :   Hlow (freq-cutoff)         0.1000000E-01      :
          :   Hmax (freq-cutoff)         5.0000000          :
          :   S6 in model hess.         20.0000000          :
          ...................................................

generating ANC from model Hessian ...
Using Lindh-Hessian (1995)
 Shifting diagonal of input Hessian by    0.0000000000000000     
 Lowest  eigenvalues of input Hessian
    0.000000    0.000000    0.000000    0.000000    0.000000    0.000000
    0.039173    0.046153    0.061851    0.066477    0.093306    0.099910
    0.141034    0.171521    0.202189    0.226335    0.382215    0.705248
 Highest eigenvalues
    0.724036    1.117875    1.245584    1.357880    1.359143    7.212346


........................................................................
.............................. CYCLE    1 ..............................
........................................................................
   1     -7.7673677 -0.776737E+01  0.103E-05   10.59       0.0  T
   2     -7.7673677 -0.435207E-13  0.582E-06   10.59    6076.3  T
   3     -7.7673677 -0.355271E-14  0.824E-07   10.59   42912.0  T
     SCC iter.                  ...        0 min,  0.071 sec
     gradient                   ...        0 min,  0.033 sec
 * total energy  :    -7.6618042 Eh     change       -0.1334932E-11 Eh
   gradient norm :     0.0168178 Eh/α   predicted     0.0000000E+00 (-100.00%)
   displ. norm   :     0.0623023 α      lambda       -0.9148992E-03
   maximum displ.:     0.0535978 α      in ANC's #10, #4, #11, ...

........................................................................
.............................. CYCLE    2 ..............................
........................................................................
   1     -7.7710503 -0.777105E+01  0.198E-01   10.79       0.0  T
   2     -7.7710747 -0.243176E-04  0.109E-01   10.78       1.0  T
   3     -7.7710750 -0.348363E-06  0.346E-02   10.78       1.0  T
   4     -7.7710752 -0.167536E-06  0.350E-03   10.78      10.1  T
   5     -7.7710752 -0.109664E-08  0.483E-04   10.78      73.2  T
   6     -7.7710752 -0.737721E-10  0.147E-04   10.78     241.0  T
     SCC iter.                  ...        0 min,  0.075 sec
     gradient                   ...        0 min,  0.033 sec
 * total energy  :    -7.6623766 Eh     change       -0.5723501E-03 Eh
   gradient norm :     0.0069141 Eh/α   predicted    -0.4592272E-03 ( -19.76%)
   displ. norm   :     0.0319479 α      lambda       -0.1564024E-03
   maximum displ.:     0.0228545 α      in ANC's #10, #4, #13, ...

........................................................................
.............................. CYCLE    3 ..............................
........................................................................
   1     -7.7722148 -0.777221E+01  0.733E-02   10.95       0.0  T
   2     -7.7722216 -0.673257E-05  0.382E-02   10.94       1.0  T
   3     -7.7722217 -0.955361E-07  0.162E-02   10.95       2.2  T
   4     -7.7722217 -0.249577E-07  0.166E-03   10.95      21.3  T
   5     -7.7722217 -0.249166E-09  0.590E-04   10.95      60.0  T
   6     -7.7722217 -0.400400E-10  0.340E-05   10.95    1040.5  T
     SCC iter.                  ...        0 min,  0.068 sec
     gradient                   ...        0 min,  0.038 sec
 * total energy  :    -7.6624549 Eh     change       -0.7835404E-04 Eh
   gradient norm :     0.0011262 Eh/α   predicted    -0.7828115E-04 (  -0.09%)
   displ. norm   :     0.0040120 α      lambda       -0.2186240E-05
   maximum displ.:     0.0029260 α      in ANC's #4, #13, #11, ...

........................................................................
.............................. CYCLE    4 ..............................
........................................................................
   1     -7.7718947 -0.777189E+01  0.790E-03   10.95       0.0  T
   2     -7.7718947 -0.942145E-08  0.460E-03   10.95       7.7  T
   3     -7.7718947 -0.845043E-09  0.502E-04   10.95      70.4  T
   4     -7.7718947 -0.112285E-09  0.168E-04   10.95     210.1  T
     SCC iter.                  ...        0 min,  0.058 sec
     gradient                   ...        0 min,  0.034 sec
 * total energy  :    -7.6624561 Eh     change       -0.1178120E-05 Eh
   gradient norm :     0.0003164 Eh/α   predicted    -0.1094735E-05 (  -7.08%)
   displ. norm   :     0.0014534 α      lambda       -0.1902710E-06
   maximum displ.:     0.0013361 α      in ANC's #4, #13, #11, ...

   *** GEOMETRY OPTIMIZATION CONVERGED AFTER 4 ITERATIONS ***

------------------------------------------------------------------------
 total energy gain   :        -0.0006519 Eh       -0.4091 kcal/mol
 total RMSD          :         0.0291960 a0        0.0154 Å
 total power (kW/mol):        -0.4278792 (step)   -3.0168 (real)
------------------------------------------------------------------------

 ANCopt (total)                0 d,  0 h,  0 min,  0.567 sec
 optimizer setup                ...        0 min,  0.000 sec (  0.007%)
 model hessian                  ...        0 min,  0.005 sec (  0.948%)
 ANC generation                 ...        0 min,  0.000 sec (  0.025%)
 coordinate transformation      ...        0 min,  0.000 sec (  0.002%)
 single point calculation       ...        0 min,  0.550 sec ( 96.933%)
 optimization log               ...        0 min,  0.000 sec (  0.050%)
 hessian update                 ...        0 min,  0.011 sec (  1.940%)
 rational function              ...        0 min,  0.000 sec (  0.053%)

================
 final structure:
================
8
 xtb: 6.5.1 (b24c23e)
C            0.77102712797718       -0.06796019614925        0.08858808551030
N           -0.70892029974980        0.06332029695049       -0.08079847974204
H           -1.18609984757656        0.05395340753587        0.82931813882216
H           -0.94885733107153        0.94336916080375       -0.55413419066829
H           -1.08541139901271       -0.71034401418664       -0.64275827942901
H            1.13708177570492       -0.95628267098466       -0.41976400229948
H            1.28189187094044        0.79742073667673       -0.32574831652854
H            1.03028710278806       -0.14581772064628        1.14132205433489

 Bond Distances (Angstroems)
 ---------------------------
C1-N2=1.4954         C1-H6=1.0870         C1-H7=1.0870         C1-H8=1.0870         N2-C1=1.4954         N2-H3=1.0277         
N2-H4=1.0277         N2-H5=1.0277         H3-N2=1.0277         H4-N2=1.0277         H5-N2=1.0277         H6-C1=1.0870         
H7-C1=1.0870         H8-C1=1.0870         
 C  H  Rav=1.0870 sigma=0.0000  Rmin=1.0870  Rmax=1.0870     3
 N  H  Rav=1.0277 sigma=0.0000  Rmin=1.0277  Rmax=1.0277     3
 N  C  Rav=1.4954 sigma=0.0000  Rmin=1.4954  Rmax=1.4954     1

 selected bond angles (degree)
 --------------------
H6-C1-N2=110.61                H7-C1-N2=110.61                H7-C1-H6=108.31                H8-C1-N2=110.61                
H8-C1-H6=108.31                H8-C1-H7=108.31                H3-N2-C1=111.00                H4-N2-C1=111.00                
H4-N2-H3=107.90                H5-N2-C1=111.00                H5-N2-H3=107.90                H5-N2-H4=107.90                

 selected dihedral angles (degree)
 ---------------------------------
H3-N2-C1-H6=120.00            H3-N2-C1-H7=240.00            H3-N2-C1-H8=  0.00            H4-N2-C1-H6=240.00            
H4-N2-C1-H7=  0.00            H4-N2-C1-H8=120.00            H5-N2-C1-H6=  0.00            H5-N2-C1-H7=120.00            
H5-N2-C1-H8=240.00            
           -------------------------------------------------
          |                Final Singlepoint                |
           -------------------------------------------------

          ...................................................
          :                      SETUP                      :
          :.................................................:
          :  # basis functions                  14          :
          :  # atomic orbitals                  14          :
          :  # shells                           10          :
          :  # electrons                        14          :
          :  max. iterations                   250          :
          :  Hamiltonian                  GFN2-xTB          :
          :  restarted?                      false          :
          :  GBSA solvation                  false          :
          :  PC potential                    false          :
          :  electronic temp.          300.0000000     K    :
          :  accuracy                    1.0000000          :
          :  -> integral cutoff          0.2500000E+02      :
          :  -> integral neglect         0.1000000E-07      :
          :  -> SCF convergence          0.1000000E-05 Eh   :
          :  -> wf. convergence          0.1000000E-03 e    :
          :  Broyden damping             0.4000000          :
          ...................................................

 iter      E             dE          RMSdq      gap      omega  full diag
   1     -7.7718947 -0.777189E+01  0.603E-05   10.95       0.0  T
   2     -7.7718947 -0.296652E-12  0.352E-05   10.95    1003.4  T
   3     -7.7718947 -0.150990E-13  0.271E-06   10.95   13060.4  T

   *** convergence criteria satisfied after 3 iterations ***

         #    Occupation            Energy/Eh            Energy/eV
      -------------------------------------------------------------
         1        2.0000           -0.9117337             -24.8095
         2        2.0000           -0.8543379             -23.2477
         3        2.0000           -0.8170984             -22.2344
         4        2.0000           -0.8170977             -22.2344
         5        2.0000           -0.7597644             -20.6742
         6        2.0000           -0.6839940             -18.6124
         7        2.0000           -0.6839931             -18.6124 (HOMO)
         8                         -0.2817580              -7.6670 (LUMO)
         9                         -0.1664969              -4.5306
        10                         -0.1257748              -3.4225
        11                         -0.1257712              -3.4224
        12                         -0.0278607              -0.7581
       ...                                ...                  ...
        14                          0.0414082               1.1268
      -------------------------------------------------------------
                  HL-Gap            0.4022351 Eh           10.9454 eV
             Fermi-level           -0.4828756 Eh          -13.1397 eV

 SCC (total)                   0 d,  0 h,  0 min,  0.109 sec
 SCC setup                      ...        0 min,  0.004 sec (  3.391%)
 Dispersion                     ...        0 min,  0.010 sec (  9.269%)
 classical contributions        ...        0 min,  0.004 sec (  3.348%)
 integral evaluation            ...        0 min,  0.014 sec ( 12.858%)
 iterations                     ...        0 min,  0.046 sec ( 41.854%)
 molecular gradient             ...        0 min,  0.032 sec ( 29.159%)
 printout                       ...        0 min,  0.000 sec (  0.098%)

         :::::::::::::::::::::::::::::::::::::::::::::::::::::
         ::                     SUMMARY                     ::
         :::::::::::::::::::::::::::::::::::::::::::::::::::::
         :: total energy              -7.662456110371 Eh    ::
         :: gradient norm              0.000316105937 Eh/a0 ::
         :: HOMO-LUMO gap             10.945374547015 eV    ::
         ::.................................................::
         :: SCC energy                -7.771894673540 Eh    ::
         :: -> isotropic ES            0.119583602005 Eh    ::
         :: -> anisotropic ES         -0.011777022092 Eh    ::
         :: -> anisotropic XC          0.007685914273 Eh    ::
         :: -> dispersion             -0.001376240333 Eh    ::
         :: repulsion energy           0.109438413984 Eh    ::
         :: add. restraining           0.000000000004 Eh    ::
         :: total charge               1.000000000000 e     ::
         :::::::::::::::::::::::::::::::::::::::::::::::::::::

           -------------------------------------------------
          |                Property Printout                |
           -------------------------------------------------

    * Orbital Energies and Occupations

         #    Occupation            Energy/Eh            Energy/eV
      -------------------------------------------------------------
         1        2.0000           -0.9117337             -24.8095
         2        2.0000           -0.8543379             -23.2477
         3        2.0000           -0.8170984             -22.2344
         4        2.0000           -0.8170977             -22.2344
         5        2.0000           -0.7597644             -20.6742
         6        2.0000           -0.6839940             -18.6124
         7        2.0000           -0.6839931             -18.6124 (HOMO)
         8                         -0.2817580              -7.6670 (LUMO)
         9                         -0.1664969              -4.5306
        10                         -0.1257748              -3.4225
        11                         -0.1257712              -3.4224
        12                         -0.0278607              -0.7581
        13                          0.0414020               1.1266
        14                          0.0414082               1.1268
      -------------------------------------------------------------
                  HL-Gap            0.4022351 Eh           10.9454 eV
             Fermi-level           -0.4828756 Eh          -13.1397 eV

     #   Z          covCN         q      C6AA      α(0)
     1   6 C        3.679    -0.101    22.667     6.820
     2   7 N        3.481    -0.112    23.436     7.190
     3   1 H        0.859     0.277     0.785     1.388
     4   1 H        0.859     0.277     0.785     1.388
     5   1 H        0.859     0.277     0.785     1.388
     6   1 H        0.925     0.127     1.557     1.952
     7   1 H        0.925     0.127     1.557     1.952
     8   1 H        0.925     0.127     1.557     1.952

 Mol. C6AA /au·bohr⁶  :        255.310934
 Mol. C8AA /au·bohr⁸  :       4970.053060
 Mol. α(0) /au        :         24.028564


Wiberg/Mayer (AO) data.
largest (>0.10) Wiberg bond orders for each atom

 ---------------------------------------------------------------------------
     #   Z sym  total        # sym  WBO       # sym  WBO       # sym  WBO
 ---------------------------------------------------------------------------
     1   6 C    3.874 --     8 H    0.975     6 H    0.975     7 H    0.975
                             2 N    0.947
     2   7 N    3.683 --     1 C    0.947     3 H    0.911     5 H    0.911
                             4 H    0.911
     3   1 H    0.923 --     2 N    0.911
     4   1 H    0.923 --     2 N    0.911
     5   1 H    0.923 --     2 N    0.911
     6   1 H    0.984 --     1 C    0.975
     7   1 H    0.984 --     1 C    0.975
     8   1 H    0.984 --     1 C    0.975
 ---------------------------------------------------------------------------

Topologies differ in total number of bonds
Writing topology from bond orders to xtbtopo.mol

molecular dipole:
                 x           y           z       tot (Debye)
 q only:       -0.857       0.077      -0.097
   full:       -1.079       0.096      -0.123       2.770
molecular quadrupole (traceless):
                xx          xy          yy          xz          yz          zz
 q only:        2.749      -0.371      -1.385       0.476      -0.042      -1.364
  q+dip:        1.524      -0.206      -0.768       0.263      -0.024      -0.756
   full:        2.192      -0.296      -1.105       0.379      -0.034      -1.088

           -------------------------------------------------
          |                Geometry Summary                 |
           -------------------------------------------------

      molecular mass/u    :       32.0650836
   center of mass at/Å    :       -0.0136698       0.0016471      -0.0012242
  moments of inertia/u·Å² :        0.5913147E+01   0.2506582E+02   0.2506585E+02
rotational constants/cm⁻¹ :        0.2850873E+01   0.6725345E+00   0.6725339E+00

 * 7 selected distances

     #   Z          #   Z                                           value/Å
     1   6 C        2   7 N                                       1.4953833 (max)
     2   7 N        3   1 H                                       1.0276675 (min)
     2   7 N        4   1 H                                       1.0276686
     2   7 N        5   1 H                                       1.0276678
     1   6 C        6   1 H                                       1.0869843
     1   6 C        7   1 H                                       1.0869875
     1   6 C        8   1 H                                       1.0869805

 * 3 distinct bonds (by element types)

   Z      Z             #   av. dist./Å        max./Å        min./Å
   1 H    6 C           3     1.0869841     1.0869875     1.0869805
   1 H    7 N           3     1.0276679     1.0276686     1.0276675
   6 C    7 N           1     1.4953833     1.4953833     1.4953833


optimized geometry written to: xtbopt.xyz


           -------------------------------------------------
          | TOTAL ENERGY               -7.662456110371 Eh   |
          | GRADIENT NORM               0.000316105937 Eh/α |
          | HOMO-LUMO GAP              10.945374547015 eV   |
           -------------------------------------------------

------------------------------------------------------------------------
 * finished run on 2022/11/03 at 12:45:49.260     
------------------------------------------------------------------------
 total:
 * wall-time:     0 d,  0 h,  0 min,  0.894 sec
 *  cpu-time:     0 d,  0 h,  0 min,  7.118 sec
 * ratio c/w:     7.966 speedup
 SCF:
 * wall-time:     0 d,  0 h,  0 min,  0.175 sec
 *  cpu-time:     0 d,  0 h,  0 min,  1.396 sec
 * ratio c/w:     7.988 speedup
 ANC optimizer:
 * wall-time:     0 d,  0 h,  0 min,  0.677 sec
 *  cpu-time:     0 d,  0 h,  0 min,  5.395 sec
 * ratio c/w:     7.964 speedup

