      -----------------------------------------------------------      
     |                   =====================                   |     
     |                           x T B                           |     
     |                   =====================                   |     
     |                         S. Grimme                         |     
     |          Mulliken Center for Theoretical Chemistry        |     
     |                    University of Bonn                     |     
      -----------------------------------------------------------      

   * xtb version 6.5.1 (b24c23e) compiled by 'conda@728c89f4b128' on 2022-07-12

   xtb is free software: you can redistribute it and/or modify it under
   the terms of the GNU Lesser General Public License as published by
   the Free Software Foundation, either version 3 of the License, or
   (at your option) any later version.
   
   xtb is distributed in the hope that it will be useful,
   but WITHOUT ANY WARRANTY; without even the implied warranty of
   MERCHANTABILITY or FITNESS FOR A PARTICULAR PURPOSE.  See the
   GNU Lesser General Public License for more details.
   
   Cite this work as:
   * C. Bannwarth, E. Caldeweyher, S. Ehlert, A. Hansen, P. Pracht,
     J. Seibert, S. Spicher, S. Grimme, WIREs Comput. Mol. Sci., 2020, 11,
     e01493. DOI: 10.1002/wcms.1493
   
   for GFN2-xTB:
   * C. Bannwarth, S. Ehlert and S. Grimme., J. Chem. Theory Comput., 2019,
     15, 1652-1671. DOI: 10.1021/acs.jctc.8b01176
   for GFN1-xTB:
   * S. Grimme, C. Bannwarth, P. Shushkov, J. Chem. Theory Comput., 2017,
     13, 1989-2009. DOI: 10.1021/acs.jctc.7b00118
   for GFN0-xTB:
   * P. Pracht, E. Caldeweyher, S. Ehlert, S. Grimme, ChemRxiv, 2019, preprint.
     DOI: 10.26434/chemrxiv.8326202.v1
   for GFN-FF:
   * S. Spicher and S. Grimme, Angew. Chem. Int. Ed., 2020, 59, 15665-15673.
     DOI: 10.1002/anie.202004239
   
   for ALPB and GBSA implicit solvation:
   * S. Ehlert, M. Stahn, S. Spicher, S. Grimme, J. Chem. Theory Comput.,
     2021, 17, 4250-4261. DOI: 10.1021/acs.jctc.1c00471
   
   for DFT-D4:
   * E. Caldeweyher, C. Bannwarth and S. Grimme, J. Chem. Phys., 2017,
     147, 034112. DOI: 10.1063/1.4993215
   * E. Caldeweyher, S. Ehlert, A. Hansen, H. Neugebauer, S. Spicher,
     C. Bannwarth and S. Grimme, J. Chem. Phys., 2019, 150, 154122.
     DOI: 10.1063/1.5090222
   * E. Caldeweyher, J.-M. Mewes, S. Ehlert and S. Grimme, Phys. Chem. Chem. Phys.
     2020, 22, 8499-8512. DOI: 10.1039/D0CP00502A
   
   for sTDA-xTB:
   * S. Grimme and C. Bannwarth, J. Chem. Phys., 2016, 145, 054103.
     DOI: 10.1063/1.4959605
   
   in the mass-spec context:
   * V. Asgeirsson, C. Bauer and S. Grimme, Chem. Sci., 2017, 8, 4879.
     DOI: 10.1039/c7sc00601b
   * J. Koopman and S. Grimme, ACS Omega 2019, 4, 12, 15120-15133.
     DOI: 10.1021/acsomega.9b02011
   
   for metadynamics refer to:
   * S. Grimme, J. Chem. Theory Comput., 2019, 155, 2847-2862
     DOI: 10.1021/acs.jctc.9b00143
   
   for SPH calculations refer to:
   * S. Spicher and S. Grimme, J. Chem. Theory Comput., 2021, 17, 1701-1714
     DOI: 10.1021/acs.jctc.0c01306
   
   with help from (in alphabetical order)
   P. Atkinson, C. Bannwarth, F. Bohle, G. Brandenburg, E. Caldeweyher
   M. Checinski, S. Dohm, S. Ehlert, S. Ehrlich, I. Gerasimov, C. Hölzer
   A. Katbashev, J. Koopman, C. Lavigne, S. Lehtola, F. März, M. Müller,
   F. Musil, H. Neugebauer, J. Pisarek, C. Plett, P. Pracht, F. Pultar,
   J. Seibert, P. Shushkov, S. Spicher, M. Stahn, M. Steiner, T. Strunk,
   J. Stückrath, T. Rose, and J. Unsleber
   
 * started run on 2022/11/03 at 12:46:23.214     

           -------------------------------------------------
          |                Calculation Setup                |
           -------------------------------------------------

          program call               : /home/chase/psi4conda/envs/xtbenv/bin/xtb --gfn 2 --chrg 1 --uhf 0 mamm-opt-1-2-180_preQMOPTprefit_xyzformat.xyz --opt --input xtb-opt-1-2-180_constr.txt
          coordinate file            : mamm-opt-1-2-180_preQMOPTprefit_xyzformat.xyz
          omp threads                :                     8

   ID    Z sym.   atoms
    1    6 C      1
    2    7 N      2
    3    1 H      3-8
constraining angle 7 1 2 5 to  180.0000945°, actual value: -179.9999055°

           -------------------------------------------------
          |                 G F N 2 - x T B                 |
           -------------------------------------------------

        Reference                      10.1021/acs.jctc.8b01176
      * Hamiltonian:
        H0-scaling (s, p, d)           1.850000    2.230000    2.230000
        zeta-weighting                 0.500000
      * Dispersion:
        s8                             2.700000
        a1                             0.520000
        a2                             5.000000
        s9                             5.000000
      * Repulsion:
        kExp                           1.500000    1.000000
        rExp                           1.000000
      * Coulomb:
        alpha                          2.000000
        third order                    shell-resolved
        anisotropic                    true
        a3                             3.000000
        a5                             4.000000
        cn-shift                       1.200000
        cn-exp                         4.000000
        max-rad                        5.000000

q/qsh data taken from xtbrestart
CAMM data taken from xtbrestart

          ...................................................
          :                      SETUP                      :
          :.................................................:
          :  # basis functions                  14          :
          :  # atomic orbitals                  14          :
          :  # shells                           10          :
          :  # electrons                        14          :
          :  max. iterations                   250          :
          :  Hamiltonian                  GFN2-xTB          :
          :  restarted?                       true          :
          :  GBSA solvation                  false          :
          :  PC potential                    false          :
          :  electronic temp.          300.0000000     K    :
          :  accuracy                    1.0000000          :
          :  -> integral cutoff          0.2500000E+02      :
          :  -> integral neglect         0.1000000E-07      :
          :  -> SCF convergence          0.1000000E-05 Eh   :
          :  -> wf. convergence          0.1000000E-03 e    :
          :  Broyden damping             0.4000000          :
          ...................................................

 iter      E             dE          RMSdq      gap      omega  full diag
   1     -7.7709937 -0.777099E+01  0.474E-01   10.63       0.0  T
   2     -7.7710742 -0.804937E-04  0.274E-01   10.66       1.0  T
   3     -7.7710760 -0.183033E-05  0.604E-02   10.64       1.0  T
   4     -7.7710771 -0.104031E-05  0.811E-03   10.65       4.4  T
   5     -7.7710771 -0.135391E-08  0.680E-04   10.65      52.0  T
   6     -7.7710771 -0.434656E-09  0.160E-04   10.65     220.8  T

   *** convergence criteria satisfied after 6 iterations ***

         #    Occupation            Energy/Eh            Energy/eV
      -------------------------------------------------------------
         1        2.0000           -0.9098975             -24.7596
         2        2.0000           -0.8537381             -23.2314
         3        2.0000           -0.8152794             -22.1849
         4        2.0000           -0.8152475             -22.1840
         5        2.0000           -0.7569541             -20.5978
         6        2.0000           -0.6861865             -18.6721
         7        2.0000           -0.6861763             -18.6718 (HOMO)
         8                         -0.2949679              -8.0265 (LUMO)
         9                         -0.1701238              -4.6293
        10                         -0.1136546              -3.0927
        11                         -0.1135099              -3.0888
        12                         -0.0512962              -1.3958
       ...                                ...                  ...
        14                          0.0208899               0.5684
      -------------------------------------------------------------
                  HL-Gap            0.3912084 Eh           10.6453 eV
             Fermi-level           -0.4905721 Eh          -13.3491 eV

 SCC (total)                   0 d,  0 h,  0 min,  0.156 sec
 SCC setup                      ...        0 min,  0.007 sec (  4.747%)
 Dispersion                     ...        0 min,  0.016 sec ( 10.351%)
 classical contributions        ...        0 min,  0.011 sec (  7.016%)
 integral evaluation            ...        0 min,  0.022 sec ( 13.960%)
 iterations                     ...        0 min,  0.066 sec ( 42.708%)
 molecular gradient             ...        0 min,  0.033 sec ( 21.110%)
 printout                       ...        0 min,  0.000 sec (  0.097%)

         :::::::::::::::::::::::::::::::::::::::::::::::::::::
         ::                     SUMMARY                     ::
         :::::::::::::::::::::::::::::::::::::::::::::::::::::
         :: total energy              -7.665468646400 Eh    ::
         :: gradient norm              0.019316237395 Eh/a0 ::
         :: HOMO-LUMO gap             10.645323751423 eV    ::
         ::.................................................::
         :: SCC energy                -7.771077065161 Eh    ::
         :: -> isotropic ES            0.119128308357 Eh    ::
         :: -> anisotropic ES         -0.011854909237 Eh    ::
         :: -> anisotropic XC          0.007734391379 Eh    ::
         :: -> dispersion             -0.001374632610 Eh    ::
         :: repulsion energy           0.105608270715 Eh    ::
         :: add. restraining           0.000000000000 Eh    ::
         :: total charge               1.000000000000 e     ::
         :::::::::::::::::::::::::::::::::::::::::::::::::::::

      ----------------------------------------------------------- 
     |                   =====================                   |
     |                        A N C O P T                        |
     |                   =====================                   |
     |               Approximate Normal Coordinate               |
     |                Rational Function Optimizer                |
      ----------------------------------------------------------- 

          ...................................................
          :                      SETUP                      :
          :.................................................:
          :   optimization level            normal          :
          :   max. optcycles                   200          :
          :   ANC micro-cycles                  20          :
          :   degrees of freedom                18          :
          :.................................................:
          :   RF solver                   davidson          :
          :   write xtbopt.log                true          :
          :   linear?                        false          :
          :   energy convergence         0.5000000E-05 Eh   :
          :   grad. convergence          0.1000000E-02 Eh/α :
          :   maximium RF displ.         1.0000000          :
          :   Hlow (freq-cutoff)         0.1000000E-01      :
          :   Hmax (freq-cutoff)         5.0000000          :
          :   S6 in model hess.         20.0000000          :
          ...................................................

generating ANC from model Hessian ...
Using Lindh-Hessian (1995)
 Shifting diagonal of input Hessian by    0.0000000000000000     
 Lowest  eigenvalues of input Hessian
    0.000000    0.000000    0.000000    0.000000    0.000000    0.000000
    0.038395    0.046082    0.064229    0.066212    0.094069    0.103125
    0.141196    0.175646    0.202518    0.227187    0.383009    0.723144
 Highest eigenvalues
    0.735107    1.119309    1.293426    1.360346    1.360489    6.270635


........................................................................
.............................. CYCLE    1 ..............................
........................................................................
   1     -7.7710771 -0.777108E+01  0.326E-05   10.65       0.0  T
   2     -7.7710771 -0.101430E-11  0.171E-05   10.65    2063.0  T
   3     -7.7710771 -0.266454E-13  0.641E-06   10.65    5514.9  T
     SCC iter.                  ...        0 min,  0.064 sec
     gradient                   ...        0 min,  0.033 sec
 * total energy  :    -7.6654686 Eh     change       -0.2293721E-10 Eh
   gradient norm :     0.0193157 Eh/α   predicted     0.0000000E+00 (-100.00%)
   displ. norm   :     0.0698640 α      lambda       -0.1066700E-02
   maximum displ.:     0.0560799 α      in ANC's #10, #4, #11, ...

........................................................................
.............................. CYCLE    2 ..............................
........................................................................
   1     -7.7746387 -0.777464E+01  0.163E-01   10.97       0.0  T
   2     -7.7746723 -0.335500E-04  0.835E-02   10.95       1.0  T
   3     -7.7746728 -0.502294E-06  0.359E-02   10.95       1.0  T
   4     -7.7746729 -0.135559E-06  0.384E-03   10.95       9.2  T
   5     -7.7746729 -0.113777E-08  0.127E-03   10.95      27.9  T
   6     -7.7746729 -0.192042E-09  0.108E-04   10.95     325.9  T
   7     -7.7746729 -0.161826E-11  0.241E-05   10.95    1467.0  T
     SCC iter.                  ...        0 min,  0.099 sec
     gradient                   ...        0 min,  0.033 sec
 * total energy  :    -7.6661905 Eh     change       -0.7218742E-03 Eh
   gradient norm :     0.0083871 Eh/α   predicted    -0.5359527E-03 ( -25.76%)
   displ. norm   :     0.0359117 α      lambda       -0.2279743E-03
   maximum displ.:     0.0294714 α      in ANC's #10, #4, #12, ...

........................................................................
.............................. CYCLE    3 ..............................
........................................................................
   1     -7.7756802 -0.777568E+01  0.944E-02   11.12       0.0  T
   2     -7.7756897 -0.950169E-05  0.498E-02   11.11       1.0  T
   3     -7.7756898 -0.126158E-06  0.198E-02   11.11       1.8  T
   4     -7.7756898 -0.350759E-07  0.191E-03   11.11      18.5  T
   5     -7.7756898 -0.435618E-09  0.740E-04   11.11      47.8  T
   6     -7.7756898 -0.516378E-10  0.537E-05   11.11     658.3  T
     SCC iter.                  ...        0 min,  0.069 sec
     gradient                   ...        0 min,  0.032 sec
 * total energy  :    -7.6663037 Eh     change       -0.1132098E-03 Eh
   gradient norm :     0.0008252 Eh/α   predicted    -0.1141341E-03 (   0.82%)
   displ. norm   :     0.0030895 α      lambda       -0.1331507E-05
   maximum displ.:     0.0018216 α      in ANC's #10, #4, #12, ...

........................................................................
.............................. CYCLE    4 ..............................
........................................................................
   1     -7.7754644 -0.777546E+01  0.542E-03   11.11       0.0  T
   2     -7.7754644 -0.238362E-07  0.290E-03   11.11      12.2  T
   3     -7.7754644 -0.772610E-09  0.101E-03   11.11      34.9  T
   4     -7.7754644 -0.164301E-09  0.177E-04   11.11     199.6  T
   5     -7.7754644 -0.717648E-12  0.955E-06   11.11    3701.7  T
     SCC iter.                  ...        0 min,  0.058 sec
     gradient                   ...        0 min,  0.032 sec
 * total energy  :    -7.6663045 Eh     change       -0.7689533E-06 Eh
   gradient norm :     0.0001735 Eh/α   predicted    -0.6637704E-06 ( -13.68%)
   displ. norm   :     0.0009163 α      lambda       -0.6421103E-07
   maximum displ.:     0.0007990 α      in ANC's #4, #10, #11, ...

   *** GEOMETRY OPTIMIZATION CONVERGED AFTER 4 ITERATIONS ***

------------------------------------------------------------------------
 total energy gain   :        -0.0008359 Eh       -0.5245 kcal/mol
 total RMSD          :         0.0364230 a0        0.0193 Å
 total power (kW/mol):        -0.5486329 (step)   -3.8919 (real)
------------------------------------------------------------------------

 ANCopt (total)                0 d,  0 h,  0 min,  0.564 sec
 optimizer setup                ...        0 min,  0.000 sec (  0.010%)
 model hessian                  ...        0 min,  0.003 sec (  0.559%)
 ANC generation                 ...        0 min,  0.000 sec (  0.027%)
 coordinate transformation      ...        0 min,  0.000 sec (  0.002%)
 single point calculation       ...        0 min,  0.548 sec ( 97.254%)
 optimization log               ...        0 min,  0.000 sec (  0.051%)
 hessian update                 ...        0 min,  0.011 sec (  2.001%)
 rational function              ...        0 min,  0.000 sec (  0.055%)

================
 final structure:
================
8
 xtb: 6.5.1 (b24c23e)
C            0.76679188036473       -0.04297539378213        0.09692723805406
N           -0.70388339940784        0.03793593965491       -0.08917095452762
H           -0.95847958890990       -0.20222685018178       -1.05676662523563
H           -1.18386477913326       -0.61497770071219        0.54491509799404
H           -1.04038114542878        0.98993508249449        0.10883763488804
H            1.02836949538855        0.21204573777560        1.12163799256193
H            1.11516623114262       -1.05174119587900       -0.11404559516220
H            1.26727629598389        0.64966537063009       -0.57630978857262

 Bond Distances (Angstroems)
 ---------------------------
C1-N2=1.4846         C1-H6=1.0879         C1-H7=1.0879         C1-H8=1.0879         N2-C1=1.4846         N2-H3=1.0290         
N2-H4=1.0290         N2-H5=1.0290         H3-N2=1.0290         H4-N2=1.0290         H5-N2=1.0290         H6-C1=1.0879         
H7-C1=1.0879         H8-C1=1.0879         
 C  H  Rav=1.0879 sigma=0.0000  Rmin=1.0879  Rmax=1.0879     3
 N  H  Rav=1.0290 sigma=0.0000  Rmin=1.0290  Rmax=1.0290     3
 N  C  Rav=1.4846 sigma=0.0000  Rmin=1.4846  Rmax=1.4846     1

 selected bond angles (degree)
 --------------------
H6-C1-N2=110.09                H7-C1-N2=110.09                H7-C1-H6=108.85                H8-C1-N2=110.09                
H8-C1-H6=108.85                H8-C1-H7=108.85                H3-N2-C1=110.50                H4-N2-C1=110.50                
H4-N2-H3=108.42                H5-N2-C1=110.50                H5-N2-H3=108.42                H5-N2-H4=108.42                

 selected dihedral angles (degree)
 ---------------------------------
H3-N2-C1-H6=180.00            H3-N2-C1-H7=300.00            H3-N2-C1-H8= 60.00            H4-N2-C1-H6=300.00            
H4-N2-C1-H7= 60.00            H4-N2-C1-H8=180.00            H5-N2-C1-H6= 60.00            H5-N2-C1-H7=180.00            
H5-N2-C1-H8=300.00            
           -------------------------------------------------
          |                Final Singlepoint                |
           -------------------------------------------------

          ...................................................
          :                      SETUP                      :
          :.................................................:
          :  # basis functions                  14          :
          :  # atomic orbitals                  14          :
          :  # shells                           10          :
          :  # electrons                        14          :
          :  max. iterations                   250          :
          :  Hamiltonian                  GFN2-xTB          :
          :  restarted?                      false          :
          :  GBSA solvation                  false          :
          :  PC potential                    false          :
          :  electronic temp.          300.0000000     K    :
          :  accuracy                    1.0000000          :
          :  -> integral cutoff          0.2500000E+02      :
          :  -> integral neglect         0.1000000E-07      :
          :  -> SCF convergence          0.1000000E-05 Eh   :
          :  -> wf. convergence          0.1000000E-03 e    :
          :  Broyden damping             0.4000000          :
          ...................................................

 iter      E             dE          RMSdq      gap      omega  full diag
   1     -7.7754644 -0.777546E+01  0.318E-06   11.11       0.0  T
   2     -7.7754644  0.000000E+00  0.170E-06   11.11   20821.2  T
   3     -7.7754644 -0.177636E-14  0.152E-07   11.11  100000.0  T

   *** convergence criteria satisfied after 3 iterations ***

         #    Occupation            Energy/Eh            Energy/eV
      -------------------------------------------------------------
         1        2.0000           -0.9134522             -24.8563
         2        2.0000           -0.8555999             -23.2821
         3        2.0000           -0.8183676             -22.2689
         4        2.0000           -0.8183658             -22.2689
         5        2.0000           -0.7593957             -20.6642
         6        2.0000           -0.6852697             -18.6471
         7        2.0000           -0.6852696             -18.6471 (HOMO)
         8                         -0.2769869              -7.5372 (LUMO)
         9                         -0.1623334              -4.4173
        10                         -0.1101191              -2.9965
        11                         -0.1101104              -2.9963
        12                         -0.0356051              -0.9689
       ...                                ...                  ...
        14                          0.0240194               0.6536
      -------------------------------------------------------------
                  HL-Gap            0.4082826 Eh           11.1099 eV
             Fermi-level           -0.4811283 Eh          -13.0922 eV

 SCC (total)                   0 d,  0 h,  0 min,  0.092 sec
 SCC setup                      ...        0 min,  0.004 sec (  3.875%)
 Dispersion                     ...        0 min,  0.007 sec (  7.983%)
 classical contributions        ...        0 min,  0.005 sec (  4.991%)
 integral evaluation            ...        0 min,  0.011 sec ( 11.777%)
 iterations                     ...        0 min,  0.033 sec ( 35.808%)
 molecular gradient             ...        0 min,  0.033 sec ( 35.452%)
 printout                       ...        0 min,  0.000 sec (  0.100%)

         :::::::::::::::::::::::::::::::::::::::::::::::::::::
         ::                     SUMMARY                     ::
         :::::::::::::::::::::::::::::::::::::::::::::::::::::
         :: total energy              -7.666304499324 Eh    ::
         :: gradient norm              0.000173478651 Eh/a0 ::
         :: HOMO-LUMO gap             11.109935785254 eV    ::
         ::.................................................::
         :: SCC energy                -7.775464438555 Eh    ::
         :: -> isotropic ES            0.119642309487 Eh    ::
         :: -> anisotropic ES         -0.012200993168 Eh    ::
         :: -> anisotropic XC          0.007634917042 Eh    ::
         :: -> dispersion             -0.001377988453 Eh    ::
         :: repulsion energy           0.109159798869 Eh    ::
         :: add. restraining           0.000000000022 Eh    ::
         :: total charge               1.000000000000 e     ::
         :::::::::::::::::::::::::::::::::::::::::::::::::::::

           -------------------------------------------------
          |                Property Printout                |
           -------------------------------------------------

    * Orbital Energies and Occupations

         #    Occupation            Energy/Eh            Energy/eV
      -------------------------------------------------------------
         1        2.0000           -0.9134522             -24.8563
         2        2.0000           -0.8555999             -23.2821
         3        2.0000           -0.8183676             -22.2689
         4        2.0000           -0.8183658             -22.2689
         5        2.0000           -0.7593957             -20.6642
         6        2.0000           -0.6852697             -18.6471
         7        2.0000           -0.6852696             -18.6471 (HOMO)
         8                         -0.2769869              -7.5372 (LUMO)
         9                         -0.1623334              -4.4173
        10                         -0.1101191              -2.9965
        11                         -0.1101104              -2.9963
        12                         -0.0356051              -0.9689
        13                          0.0240183               0.6536
        14                          0.0240194               0.6536
      -------------------------------------------------------------
                  HL-Gap            0.4082826 Eh           11.1099 eV
             Fermi-level           -0.4811283 Eh          -13.0922 eV

     #   Z          covCN         q      C6AA      α(0)
     1   6 C        3.679    -0.101    22.671     6.820
     2   7 N        3.482    -0.110    23.390     7.183
     3   1 H        0.859     0.277     0.786     1.389
     4   1 H        0.859     0.277     0.786     1.389
     5   1 H        0.859     0.277     0.786     1.389
     6   1 H        0.925     0.127     1.561     1.954
     7   1 H        0.925     0.127     1.561     1.954
     8   1 H        0.925     0.127     1.561     1.954

 Mol. C6AA /au·bohr⁶  :        255.337576
 Mol. C8AA /au·bohr⁸  :       4969.739400
 Mol. α(0) /au        :         24.029866


Wiberg/Mayer (AO) data.
largest (>0.10) Wiberg bond orders for each atom

 ---------------------------------------------------------------------------
     #   Z sym  total        # sym  WBO       # sym  WBO       # sym  WBO
 ---------------------------------------------------------------------------
     1   6 C    3.877 --     7 H    0.973     8 H    0.973     6 H    0.973
                             2 N    0.955
     2   7 N    3.685 --     1 C    0.955     5 H    0.910     3 H    0.910
                             4 H    0.910
     3   1 H    0.923 --     2 N    0.910
     4   1 H    0.923 --     2 N    0.910
     5   1 H    0.923 --     2 N    0.910
     6   1 H    0.984 --     1 C    0.973
     7   1 H    0.984 --     1 C    0.973
     8   1 H    0.984 --     1 C    0.973
 ---------------------------------------------------------------------------

Topologies differ in total number of bonds
Writing topology from bond orders to xtbtopo.mol

molecular dipole:
                 x           y           z       tot (Debye)
 q only:       -0.851       0.045      -0.108
   full:       -1.071       0.057      -0.136       2.747
molecular quadrupole (traceless):
                xx          xy          yy          xz          yz          zz
 q only:        2.615      -0.216      -1.333       0.501      -0.027      -1.282
  q+dip:        1.374      -0.112      -0.701       0.264      -0.014      -0.673
   full:        2.015      -0.165      -1.028       0.386      -0.021      -0.988

           -------------------------------------------------
          |                Geometry Summary                 |
           -------------------------------------------------

      molecular mass/u    :       32.0650836
   center of mass at/Å    :       -0.0130813      -0.0000700      -0.0017568
  moments of inertia/u·Å² :        0.5965150E+01   0.2469640E+02   0.2469646E+02
rotational constants/cm⁻¹ :        0.2826020E+01   0.6825946E+00   0.6825932E+00

 * 7 selected distances

     #   Z          #   Z                                           value/Å
     1   6 C        2   7 N                                       1.4846095 (max)
     2   7 N        3   1 H                                       1.0289504 (min)
     2   7 N        4   1 H                                       1.0289527
     2   7 N        5   1 H                                       1.0289513
     1   6 C        6   1 H                                       1.0878837
     1   6 C        7   1 H                                       1.0878800
     1   6 C        8   1 H                                       1.0878806

 * 3 distinct bonds (by element types)

   Z      Z             #   av. dist./Å        max./Å        min./Å
   1 H    6 C           3     1.0878814     1.0878837     1.0878800
   1 H    7 N           3     1.0289515     1.0289527     1.0289504
   6 C    7 N           1     1.4846095     1.4846095     1.4846095


optimized geometry written to: xtbopt.xyz


           -------------------------------------------------
          | TOTAL ENERGY               -7.666304499324 Eh   |
          | GRADIENT NORM               0.000173478651 Eh/α |
          | HOMO-LUMO GAP              11.109935785254 eV   |
           -------------------------------------------------

------------------------------------------------------------------------
 * finished run on 2022/11/03 at 12:46:24.087     
------------------------------------------------------------------------
 total:
 * wall-time:     0 d,  0 h,  0 min,  0.873 sec
 *  cpu-time:     0 d,  0 h,  0 min,  6.971 sec
 * ratio c/w:     7.984 speedup
 SCF:
 * wall-time:     0 d,  0 h,  0 min,  0.156 sec
 *  cpu-time:     0 d,  0 h,  0 min,  1.241 sec
 * ratio c/w:     7.970 speedup
 ANC optimizer:
 * wall-time:     0 d,  0 h,  0 min,  0.656 sec
 *  cpu-time:     0 d,  0 h,  0 min,  5.245 sec
 * ratio c/w:     7.989 speedup

