      -----------------------------------------------------------      
     |                   =====================                   |     
     |                           x T B                           |     
     |                   =====================                   |     
     |                         S. Grimme                         |     
     |          Mulliken Center for Theoretical Chemistry        |     
     |                    University of Bonn                     |     
      -----------------------------------------------------------      

   * xtb version 6.5.1 (b24c23e) compiled by 'conda@728c89f4b128' on 2022-07-12

   xtb is free software: you can redistribute it and/or modify it under
   the terms of the GNU Lesser General Public License as published by
   the Free Software Foundation, either version 3 of the License, or
   (at your option) any later version.
   
   xtb is distributed in the hope that it will be useful,
   but WITHOUT ANY WARRANTY; without even the implied warranty of
   MERCHANTABILITY or FITNESS FOR A PARTICULAR PURPOSE.  See the
   GNU Lesser General Public License for more details.
   
   Cite this work as:
   * C. Bannwarth, E. Caldeweyher, S. Ehlert, A. Hansen, P. Pracht,
     J. Seibert, S. Spicher, S. Grimme, WIREs Comput. Mol. Sci., 2020, 11,
     e01493. DOI: 10.1002/wcms.1493
   
   for GFN2-xTB:
   * C. Bannwarth, S. Ehlert and S. Grimme., J. Chem. Theory Comput., 2019,
     15, 1652-1671. DOI: 10.1021/acs.jctc.8b01176
   for GFN1-xTB:
   * S. Grimme, C. Bannwarth, P. Shushkov, J. Chem. Theory Comput., 2017,
     13, 1989-2009. DOI: 10.1021/acs.jctc.7b00118
   for GFN0-xTB:
   * P. Pracht, E. Caldeweyher, S. Ehlert, S. Grimme, ChemRxiv, 2019, preprint.
     DOI: 10.26434/chemrxiv.8326202.v1
   for GFN-FF:
   * S. Spicher and S. Grimme, Angew. Chem. Int. Ed., 2020, 59, 15665-15673.
     DOI: 10.1002/anie.202004239
   
   for ALPB and GBSA implicit solvation:
   * S. Ehlert, M. Stahn, S. Spicher, S. Grimme, J. Chem. Theory Comput.,
     2021, 17, 4250-4261. DOI: 10.1021/acs.jctc.1c00471
   
   for DFT-D4:
   * E. Caldeweyher, C. Bannwarth and S. Grimme, J. Chem. Phys., 2017,
     147, 034112. DOI: 10.1063/1.4993215
   * E. Caldeweyher, S. Ehlert, A. Hansen, H. Neugebauer, S. Spicher,
     C. Bannwarth and S. Grimme, J. Chem. Phys., 2019, 150, 154122.
     DOI: 10.1063/1.5090222
   * E. Caldeweyher, J.-M. Mewes, S. Ehlert and S. Grimme, Phys. Chem. Chem. Phys.
     2020, 22, 8499-8512. DOI: 10.1039/D0CP00502A
   
   for sTDA-xTB:
   * S. Grimme and C. Bannwarth, J. Chem. Phys., 2016, 145, 054103.
     DOI: 10.1063/1.4959605
   
   in the mass-spec context:
   * V. Asgeirsson, C. Bauer and S. Grimme, Chem. Sci., 2017, 8, 4879.
     DOI: 10.1039/c7sc00601b
   * J. Koopman and S. Grimme, ACS Omega 2019, 4, 12, 15120-15133.
     DOI: 10.1021/acsomega.9b02011
   
   for metadynamics refer to:
   * S. Grimme, J. Chem. Theory Comput., 2019, 155, 2847-2862
     DOI: 10.1021/acs.jctc.9b00143
   
   for SPH calculations refer to:
   * S. Spicher and S. Grimme, J. Chem. Theory Comput., 2021, 17, 1701-1714
     DOI: 10.1021/acs.jctc.0c01306
   
   with help from (in alphabetical order)
   P. Atkinson, C. Bannwarth, F. Bohle, G. Brandenburg, E. Caldeweyher
   M. Checinski, S. Dohm, S. Ehlert, S. Ehrlich, I. Gerasimov, C. Hölzer
   A. Katbashev, J. Koopman, C. Lavigne, S. Lehtola, F. März, M. Müller,
   F. Musil, H. Neugebauer, J. Pisarek, C. Plett, P. Pracht, F. Pultar,
   J. Seibert, P. Shushkov, S. Spicher, M. Stahn, M. Steiner, T. Strunk,
   J. Stückrath, T. Rose, and J. Unsleber
   
 * started run on 2022/11/03 at 12:45:26.337     

           -------------------------------------------------
          |                Calculation Setup                |
           -------------------------------------------------

          program call               : /home/chase/psi4conda/envs/xtbenv/bin/xtb --gfn 2 --chrg 1 --uhf 0 mamm-opt-1-2-330_preQMOPTprefit_xyzformat.xyz --opt --input xtb-opt-1-2-330_constr.txt
          coordinate file            : mamm-opt-1-2-330_preQMOPTprefit_xyzformat.xyz
          omp threads                :                     8

   ID    Z sym.   atoms
    1    6 C      1
    2    7 N      2
    3    1 H      3-8
constraining angle 7 1 2 5 to  329.9959777°, actual value:  -30.0040223°

           -------------------------------------------------
          |                 G F N 2 - x T B                 |
           -------------------------------------------------

        Reference                      10.1021/acs.jctc.8b01176
      * Hamiltonian:
        H0-scaling (s, p, d)           1.850000    2.230000    2.230000
        zeta-weighting                 0.500000
      * Dispersion:
        s8                             2.700000
        a1                             0.520000
        a2                             5.000000
        s9                             5.000000
      * Repulsion:
        kExp                           1.500000    1.000000
        rExp                           1.000000
      * Coulomb:
        alpha                          2.000000
        third order                    shell-resolved
        anisotropic                    true
        a3                             3.000000
        a5                             4.000000
        cn-shift                       1.200000
        cn-exp                         4.000000
        max-rad                        5.000000

q/qsh data taken from xtbrestart
CAMM data taken from xtbrestart

          ...................................................
          :                      SETUP                      :
          :.................................................:
          :  # basis functions                  14          :
          :  # atomic orbitals                  14          :
          :  # shells                           10          :
          :  # electrons                        14          :
          :  max. iterations                   250          :
          :  Hamiltonian                  GFN2-xTB          :
          :  restarted?                       true          :
          :  GBSA solvation                  false          :
          :  PC potential                    false          :
          :  electronic temp.          300.0000000     K    :
          :  accuracy                    1.0000000          :
          :  -> integral cutoff          0.2500000E+02      :
          :  -> integral neglect         0.1000000E-07      :
          :  -> SCF convergence          0.1000000E-05 Eh   :
          :  -> wf. convergence          0.1000000E-03 e    :
          :  Broyden damping             0.4000000          :
          ...................................................

 iter      E             dE          RMSdq      gap      omega  full diag
   1     -7.7691788 -0.776918E+01  0.477E-01   10.61       0.0  T
   2     -7.7692623 -0.834467E-04  0.276E-01   10.63       1.0  T
   3     -7.7692642 -0.197079E-05  0.625E-02   10.62       1.0  T
   4     -7.7692653 -0.103722E-05  0.855E-03   10.62       4.1  T
   5     -7.7692653 -0.253680E-08  0.267E-03   10.62      13.3  T
   6     -7.7692653 -0.109133E-08  0.785E-05   10.62     450.1  T
   7     -7.7692653 -0.231015E-11  0.352E-05   10.62    1003.5  T

   *** convergence criteria satisfied after 7 iterations ***

         #    Occupation            Energy/Eh            Energy/eV
      -------------------------------------------------------------
         1        2.0000           -0.9097324             -24.7551
         2        2.0000           -0.8535045             -23.2250
         3        2.0000           -0.8152349             -22.1837
         4        2.0000           -0.8151762             -22.1821
         5        2.0000           -0.7568214             -20.5942
         6        2.0000           -0.6856866             -18.6585
         7        2.0000           -0.6855244             -18.6541 (HOMO)
         8                         -0.2952826              -8.0350 (LUMO)
         9                         -0.1705440              -4.6407
        10                         -0.1220468              -3.3211
        11                         -0.1218534              -3.3158
        12                         -0.0502612              -1.3677
       ...                                ...                  ...
        14                          0.0300596               0.8180
      -------------------------------------------------------------
                  HL-Gap            0.3902418 Eh           10.6190 eV
             Fermi-level           -0.4904035 Eh          -13.3446 eV

 SCC (total)                   0 d,  0 h,  0 min,  0.164 sec
 SCC setup                      ...        0 min,  0.008 sec (  4.649%)
 Dispersion                     ...        0 min,  0.015 sec (  8.941%)
 classical contributions        ...        0 min,  0.009 sec (  5.618%)
 integral evaluation            ...        0 min,  0.022 sec ( 13.344%)
 iterations                     ...        0 min,  0.079 sec ( 48.160%)
 molecular gradient             ...        0 min,  0.031 sec ( 19.212%)
 printout                       ...        0 min,  0.000 sec (  0.067%)

         :::::::::::::::::::::::::::::::::::::::::::::::::::::
         ::                     SUMMARY                     ::
         :::::::::::::::::::::::::::::::::::::::::::::::::::::
         :: total energy              -7.663658929119 Eh    ::
         :: gradient norm              0.017927066280 Eh/a0 ::
         :: HOMO-LUMO gap             10.619020847354 eV    ::
         ::.................................................::
         :: SCC energy                -7.769265284125 Eh    ::
         :: -> isotropic ES            0.119181413361 Eh    ::
         :: -> anisotropic ES         -0.011649415775 Eh    ::
         :: -> anisotropic XC          0.007839990252 Eh    ::
         :: -> dispersion             -0.001374418286 Eh    ::
         :: repulsion energy           0.105606203748 Eh    ::
         :: add. restraining           0.000000000000 Eh    ::
         :: total charge               1.000000000000 e     ::
         :::::::::::::::::::::::::::::::::::::::::::::::::::::

      ----------------------------------------------------------- 
     |                   =====================                   |
     |                        A N C O P T                        |
     |                   =====================                   |
     |               Approximate Normal Coordinate               |
     |                Rational Function Optimizer                |
      ----------------------------------------------------------- 

          ...................................................
          :                      SETUP                      :
          :.................................................:
          :   optimization level            normal          :
          :   max. optcycles                   200          :
          :   ANC micro-cycles                  20          :
          :   degrees of freedom                18          :
          :.................................................:
          :   RF solver                   davidson          :
          :   write xtbopt.log                true          :
          :   linear?                        false          :
          :   energy convergence         0.5000000E-05 Eh   :
          :   grad. convergence          0.1000000E-02 Eh/α :
          :   maximium RF displ.         1.0000000          :
          :   Hlow (freq-cutoff)         0.1000000E-01      :
          :   Hmax (freq-cutoff)         5.0000000          :
          :   S6 in model hess.         20.0000000          :
          ...................................................

generating ANC from model Hessian ...
Using Lindh-Hessian (1995)
 Shifting diagonal of input Hessian by    0.0000000000000000     
 Lowest  eigenvalues of input Hessian
    0.000000    0.000000    0.000000    0.000000    0.000000    0.000000
    0.044468    0.046176    0.051752    0.066395    0.093731    0.094916
    0.141106    0.165146    0.202496    0.226806    0.382699    0.646478
 Highest eigenvalues
    0.723618    1.118584    1.183088    1.359465    1.360580    9.683048


........................................................................
.............................. CYCLE    1 ..............................
........................................................................
   1     -7.7692653 -0.776927E+01  0.413E-06   10.62       0.0  T
   2     -7.7692653 -0.266454E-14  0.232E-06   10.62   15230.3  T
   3     -7.7692653 -0.976996E-14  0.324E-07   10.62  100000.0  T
     SCC iter.                  ...        0 min,  0.062 sec
     gradient                   ...        0 min,  0.037 sec
 * total energy  :    -7.6636589 Eh     change       -0.4787282E-12 Eh
   gradient norm :     0.0179270 Eh/α   predicted     0.0000000E+00 (-100.00%)
   displ. norm   :     0.0708818 α      lambda       -0.1000628E-02
   maximum displ.:     0.0548271 α      in ANC's #10, #3, #1, ...

........................................................................
.............................. CYCLE    2 ..............................
........................................................................
   1     -7.7728734 -0.777287E+01  0.176E-01   10.87       0.0  T
   2     -7.7729018 -0.284314E-04  0.930E-02   10.85       1.0  T
   3     -7.7729022 -0.400817E-06  0.356E-02   10.86       1.0  T
   4     -7.7729024 -0.141200E-06  0.357E-03   10.86       9.9  T
   5     -7.7729024 -0.913960E-09  0.900E-04   10.86      39.3  T
   6     -7.7729024 -0.144927E-09  0.132E-04   10.86     267.8  T
     SCC iter.                  ...        0 min,  0.085 sec
     gradient                   ...        0 min,  0.045 sec
 * total energy  :    -7.6643347 Eh     change       -0.6758115E-03 Eh
   gradient norm :     0.0080883 Eh/α   predicted    -0.5028292E-03 ( -25.60%)
   displ. norm   :     0.0519256 α      lambda       -0.2494093E-03
   maximum displ.:     0.0298944 α      in ANC's #3, #10, #1, ...

........................................................................
.............................. CYCLE    3 ..............................
........................................................................
   1     -7.7740169 -0.777402E+01  0.924E-02   11.03       0.0  T
   2     -7.7740262 -0.923917E-05  0.488E-02   11.02       1.0  T
   3     -7.7740263 -0.144628E-06  0.192E-02   11.02       1.8  T
   4     -7.7740263 -0.370415E-07  0.203E-03   11.02      17.4  T
   5     -7.7740263 -0.506549E-09  0.739E-04   11.02      47.8  T
   6     -7.7740263 -0.608171E-10  0.646E-05   11.02     547.3  T
     SCC iter.                  ...        0 min,  0.096 sec
     gradient                   ...        0 min,  0.045 sec
 * total energy  :    -7.6644617 Eh     change       -0.1269874E-03 Eh
   gradient norm :     0.0029416 Eh/α   predicted    -0.1250408E-03 (  -1.53%)
   displ. norm   :     0.0107748 α      lambda       -0.9051143E-05
   maximum displ.:     0.0082084 α      in ANC's #3, #1, #8, ...

........................................................................
.............................. CYCLE    4 ..............................
........................................................................
   1     -7.7738580 -0.777386E+01  0.921E-03   11.02       0.0  T
   2     -7.7738580 -0.108946E-07  0.528E-03   11.02       6.7  T
   3     -7.7738580 -0.227436E-08  0.460E-04   11.02      76.8  T
   4     -7.7738580 -0.779679E-10  0.219E-04   11.02     161.5  T
     SCC iter.                  ...        0 min,  0.091 sec
     gradient                   ...        0 min,  0.054 sec
 * total energy  :    -7.6644669 Eh     change       -0.5172658E-05 Eh
   gradient norm :     0.0029502 Eh/α   predicted    -0.4526542E-05 ( -12.49%)
   displ. norm   :     0.0099993 α      lambda       -0.4328402E-05
   maximum displ.:     0.0079718 α      in ANC's #3, #1, #8, ...

........................................................................
.............................. CYCLE    5 ..............................
........................................................................
   1     -7.7737241 -0.777372E+01  0.879E-03   11.01       0.0  T
   2     -7.7737241 -0.257592E-07  0.489E-03   11.01       7.2  T
   3     -7.7737241 -0.266552E-08  0.829E-04   11.01      42.6  T
   4     -7.7737241 -0.194951E-09  0.241E-04   11.01     146.5  T
     SCC iter.                  ...        0 min,  0.072 sec
     gradient                   ...        0 min,  0.051 sec
 * total energy  :    -7.6644690 Eh     change       -0.2051389E-05 Eh
   gradient norm :     0.0008569 Eh/α   predicted    -0.2165865E-05 (   5.58%)
   displ. norm   :     0.0029131 α      lambda       -0.5195963E-06
   maximum displ.:     0.0019717 α      in ANC's #4, #3, #8, ...

   *** GEOMETRY OPTIMIZATION CONVERGED AFTER 5 ITERATIONS ***

------------------------------------------------------------------------
 total energy gain   :        -0.0008100 Eh       -0.5083 kcal/mol
 total RMSD          :         0.0463366 a0        0.0245 Å
 total power (kW/mol):        -0.4253430 (step)   -2.4724 (real)
------------------------------------------------------------------------

 ANCopt (total)                0 d,  0 h,  0 min,  0.860 sec
 optimizer setup                ...        0 min,  0.000 sec (  0.006%)
 model hessian                  ...        0 min,  0.001 sec (  0.173%)
 ANC generation                 ...        0 min,  0.000 sec (  0.012%)
 coordinate transformation      ...        0 min,  0.000 sec (  0.002%)
 single point calculation       ...        0 min,  0.839 sec ( 97.580%)
 optimization log               ...        0 min,  0.000 sec (  0.041%)
 hessian update                 ...        0 min,  0.018 sec (  2.114%)
 rational function              ...        0 min,  0.000 sec (  0.044%)

================
 final structure:
================
8
 xtb: 6.5.1 (b24c23e)
C            0.76756910584408       -0.06485844294748        0.09474262016704
N           -0.70581996985469        0.06007534130108       -0.08265357990487
H           -1.14732470867478       -0.86922121636582       -0.05611502365439
H           -1.12239496316871        0.63404893797318        0.66110924292513
H           -0.92924433111474        0.47302887275419       -0.99739028044584
H            1.00591590914607       -0.89333613679360        0.75622882050718
H            1.25345716918571       -0.21230017621553       -0.86691158028317
H            1.16883977863706        0.85022183029399        0.52701579068892

 Bond Distances (Angstroems)
 ---------------------------
C1-N2=1.4893         C1-H6=1.0866         C1-H7=1.0875         C1-H8=1.0887         N2-C1=1.4893         N2-H3=1.0292         
N2-H4=1.0277         N2-H5=1.0282         H3-N2=1.0292         H4-N2=1.0277         H5-N2=1.0282         H6-C1=1.0866         
H7-C1=1.0875         H8-C1=1.0887         
 C  H  Rav=1.0876 sigma=0.0008  Rmin=1.0866  Rmax=1.0887     3
 N  H  Rav=1.0284 sigma=0.0006  Rmin=1.0277  Rmax=1.0292     3
 N  C  Rav=1.4893 sigma=0.0000  Rmin=1.4893  Rmax=1.4893     1

 selected bond angles (degree)
 --------------------
H6-C1-N2=110.70                H7-C1-N2=110.37                H7-C1-H6=109.69                H8-C1-N2=109.96                
H8-C1-H6=108.56                H8-C1-H7=107.48                H3-N2-C1=110.22                H4-N2-C1=111.20                
H4-N2-H3=108.16                H5-N2-C1=110.77                H5-N2-H3=107.00                H5-N2-H4=109.36                

 selected dihedral angles (degree)
 ---------------------------------
H3-N2-C1-H6=326.52            H3-N2-C1-H7= 88.16            H3-N2-C1-H8=206.57            H4-N2-C1-H6= 86.47            
H4-N2-C1-H7=208.11            H4-N2-C1-H8=326.52            H5-N2-C1-H6=208.30            H5-N2-C1-H7=329.94            
H5-N2-C1-H8= 88.35            
           -------------------------------------------------
          |                Final Singlepoint                |
           -------------------------------------------------

          ...................................................
          :                      SETUP                      :
          :.................................................:
          :  # basis functions                  14          :
          :  # atomic orbitals                  14          :
          :  # shells                           10          :
          :  # electrons                        14          :
          :  max. iterations                   250          :
          :  Hamiltonian                  GFN2-xTB          :
          :  restarted?                      false          :
          :  GBSA solvation                  false          :
          :  PC potential                    false          :
          :  electronic temp.          300.0000000     K    :
          :  accuracy                    1.0000000          :
          :  -> integral cutoff          0.2500000E+02      :
          :  -> integral neglect         0.1000000E-07      :
          :  -> SCF convergence          0.1000000E-05 Eh   :
          :  -> wf. convergence          0.1000000E-03 e    :
          :  Broyden damping             0.4000000          :
          ...................................................

 iter      E             dE          RMSdq      gap      omega  full diag
   1     -7.7737241 -0.777372E+01  0.246E-05   11.01       0.0  T
   2     -7.7737241 -0.310862E-12  0.133E-05   11.01    2650.5  T
   3     -7.7737241 -0.888178E-13  0.252E-06   11.01   14030.1  T

   *** convergence criteria satisfied after 3 iterations ***

         #    Occupation            Energy/Eh            Energy/eV
      -------------------------------------------------------------
         1        2.0000           -0.9126740             -24.8351
         2        2.0000           -0.8550336             -23.2666
         3        2.0000           -0.8184891             -22.2722
         4        2.0000           -0.8170681             -22.2336
         5        2.0000           -0.7595645             -20.6688
         6        2.0000           -0.6855720             -18.6554
         7        2.0000           -0.6836853             -18.6040 (HOMO)
         8                         -0.2789547              -7.5907 (LUMO)
         9                         -0.1642815              -4.4703
        10                         -0.1205481              -3.2803
        11                         -0.1149976              -3.1292
        12                         -0.0322043              -0.8763
       ...                                ...                  ...
        14                          0.0372488               1.0136
      -------------------------------------------------------------
                  HL-Gap            0.4047306 Eh           11.0133 eV
             Fermi-level           -0.4813200 Eh          -13.0974 eV

 SCC (total)                   0 d,  0 h,  0 min,  0.101 sec
 SCC setup                      ...        0 min,  0.004 sec (  3.816%)
 Dispersion                     ...        0 min,  0.007 sec (  6.983%)
 classical contributions        ...        0 min,  0.004 sec (  3.540%)
 integral evaluation            ...        0 min,  0.013 sec ( 12.956%)
 iterations                     ...        0 min,  0.036 sec ( 35.194%)
 molecular gradient             ...        0 min,  0.038 sec ( 37.384%)
 printout                       ...        0 min,  0.000 sec (  0.110%)

         :::::::::::::::::::::::::::::::::::::::::::::::::::::
         ::                     SUMMARY                     ::
         :::::::::::::::::::::::::::::::::::::::::::::::::::::
         :: total energy              -7.664468952074 Eh    ::
         :: gradient norm              0.000857085340 Eh/a0 ::
         :: HOMO-LUMO gap             11.013279521194 eV    ::
         ::.................................................::
         :: SCC energy                -7.773724129544 Eh    ::
         :: -> isotropic ES            0.119619966954 Eh    ::
         :: -> anisotropic ES         -0.012007703102 Eh    ::
         :: -> anisotropic XC          0.007663175046 Eh    ::
         :: -> dispersion             -0.001377204537 Eh    ::
         :: repulsion energy           0.109252367618 Eh    ::
         :: add. restraining           0.000002665550 Eh    ::
         :: total charge               1.000000000000 e     ::
         :::::::::::::::::::::::::::::::::::::::::::::::::::::

           -------------------------------------------------
          |                Property Printout                |
           -------------------------------------------------

    * Orbital Energies and Occupations

         #    Occupation            Energy/Eh            Energy/eV
      -------------------------------------------------------------
         1        2.0000           -0.9126740             -24.8351
         2        2.0000           -0.8550336             -23.2666
         3        2.0000           -0.8184891             -22.2722
         4        2.0000           -0.8170681             -22.2336
         5        2.0000           -0.7595645             -20.6688
         6        2.0000           -0.6855720             -18.6554
         7        2.0000           -0.6836853             -18.6040 (HOMO)
         8                         -0.2789547              -7.5907 (LUMO)
         9                         -0.1642815              -4.4703
        10                         -0.1205481              -3.2803
        11                         -0.1149976              -3.1292
        12                         -0.0322043              -0.8763
        13                          0.0273713               0.7448
        14                          0.0372488               1.0136
      -------------------------------------------------------------
                  HL-Gap            0.4047306 Eh           11.0133 eV
             Fermi-level           -0.4813200 Eh          -13.0974 eV

     #   Z          covCN         q      C6AA      α(0)
     1   6 C        3.679    -0.101    22.671     6.820
     2   7 N        3.482    -0.111    23.410     7.186
     3   1 H        0.859     0.277     0.787     1.390
     4   1 H        0.859     0.278     0.784     1.387
     5   1 H        0.859     0.277     0.785     1.388
     6   1 H        0.925     0.128     1.554     1.949
     7   1 H        0.925     0.127     1.560     1.953
     8   1 H        0.925     0.126     1.565     1.956

 Mol. C6AA /au·bohr⁶  :        255.327321
 Mol. C8AA /au·bohr⁸  :       4969.934008
 Mol. α(0) /au        :         24.029358


Wiberg/Mayer (AO) data.
largest (>0.10) Wiberg bond orders for each atom

 ---------------------------------------------------------------------------
     #   Z sym  total        # sym  WBO       # sym  WBO       # sym  WBO
 ---------------------------------------------------------------------------
     1   6 C    3.875 --     8 H    0.974     7 H    0.974     6 H    0.974
                             2 N    0.952
     2   7 N    3.684 --     1 C    0.952     4 H    0.911     5 H    0.911
                             3 H    0.910
     3   1 H    0.923 --     2 N    0.910
     4   1 H    0.923 --     2 N    0.911
     5   1 H    0.923 --     2 N    0.911
     6   1 H    0.984 --     1 C    0.974
     7   1 H    0.984 --     1 C    0.974
     8   1 H    0.984 --     1 C    0.974
 ---------------------------------------------------------------------------

Topologies differ in total number of bonds
Writing topology from bond orders to xtbtopo.mol

molecular dipole:
                 x           y           z       tot (Debye)
 q only:       -0.854       0.062      -0.106
   full:       -1.074       0.078      -0.135       2.758
molecular quadrupole (traceless):
                xx          xy          yy          xz          yz          zz
 q only:        2.675      -0.304      -1.388       0.493      -0.033      -1.286
  q+dip:        1.449      -0.133      -0.804       0.264      -0.028      -0.644
   full:        2.100      -0.211      -1.122       0.386      -0.029      -0.978

           -------------------------------------------------
          |                Geometry Summary                 |
           -------------------------------------------------

      molecular mass/u    :       32.0650836
   center of mass at/Å    :       -0.0135996       0.0013960       0.0001357
  moments of inertia/u·Å² :        0.5941225E+01   0.2483606E+02   0.2488520E+02
rotational constants/cm⁻¹ :        0.2837400E+01   0.6787563E+00   0.6774161E+00

 * 7 selected distances

     #   Z          #   Z                                           value/Å
     1   6 C        2   7 N                                       1.4892796 (max)
     2   7 N        3   1 H                                       1.0291856
     2   7 N        4   1 H                                       1.0276983 (min)
     2   7 N        5   1 H                                       1.0281987
     1   6 C        6   1 H                                       1.0866226
     1   6 C        7   1 H                                       1.0874766
     1   6 C        8   1 H                                       1.0886920

 * 3 distinct bonds (by element types)

   Z      Z             #   av. dist./Å        max./Å        min./Å
   1 H    6 C           3     1.0875971     1.0886920     1.0866226
   1 H    7 N           3     1.0283608     1.0291856     1.0276983
   6 C    7 N           1     1.4892796     1.4892796     1.4892796


optimized geometry written to: xtbopt.xyz


           -------------------------------------------------
          | TOTAL ENERGY               -7.664468952074 Eh   |
          | GRADIENT NORM               0.000857085340 Eh/α |
          | HOMO-LUMO GAP              11.013279521194 eV   |
           -------------------------------------------------

------------------------------------------------------------------------
 * finished run on 2022/11/03 at 12:45:27.528     
------------------------------------------------------------------------
 total:
 * wall-time:     0 d,  0 h,  0 min,  1.190 sec
 *  cpu-time:     0 d,  0 h,  0 min,  9.438 sec
 * ratio c/w:     7.929 speedup
 SCF:
 * wall-time:     0 d,  0 h,  0 min,  0.164 sec
 *  cpu-time:     0 d,  0 h,  0 min,  1.307 sec
 * ratio c/w:     7.977 speedup
 ANC optimizer:
 * wall-time:     0 d,  0 h,  0 min,  0.962 sec
 *  cpu-time:     0 d,  0 h,  0 min,  7.616 sec
 * ratio c/w:     7.919 speedup

