      -----------------------------------------------------------      
     |                   =====================                   |     
     |                           x T B                           |     
     |                   =====================                   |     
     |                         S. Grimme                         |     
     |          Mulliken Center for Theoretical Chemistry        |     
     |                    University of Bonn                     |     
      -----------------------------------------------------------      

   * xtb version 6.5.1 (b24c23e) compiled by 'conda@728c89f4b128' on 2022-07-12

   xtb is free software: you can redistribute it and/or modify it under
   the terms of the GNU Lesser General Public License as published by
   the Free Software Foundation, either version 3 of the License, or
   (at your option) any later version.
   
   xtb is distributed in the hope that it will be useful,
   but WITHOUT ANY WARRANTY; without even the implied warranty of
   MERCHANTABILITY or FITNESS FOR A PARTICULAR PURPOSE.  See the
   GNU Lesser General Public License for more details.
   
   Cite this work as:
   * C. Bannwarth, E. Caldeweyher, S. Ehlert, A. Hansen, P. Pracht,
     J. Seibert, S. Spicher, S. Grimme, WIREs Comput. Mol. Sci., 2020, 11,
     e01493. DOI: 10.1002/wcms.1493
   
   for GFN2-xTB:
   * C. Bannwarth, S. Ehlert and S. Grimme., J. Chem. Theory Comput., 2019,
     15, 1652-1671. DOI: 10.1021/acs.jctc.8b01176
   for GFN1-xTB:
   * S. Grimme, C. Bannwarth, P. Shushkov, J. Chem. Theory Comput., 2017,
     13, 1989-2009. DOI: 10.1021/acs.jctc.7b00118
   for GFN0-xTB:
   * P. Pracht, E. Caldeweyher, S. Ehlert, S. Grimme, ChemRxiv, 2019, preprint.
     DOI: 10.26434/chemrxiv.8326202.v1
   for GFN-FF:
   * S. Spicher and S. Grimme, Angew. Chem. Int. Ed., 2020, 59, 15665-15673.
     DOI: 10.1002/anie.202004239
   
   for ALPB and GBSA implicit solvation:
   * S. Ehlert, M. Stahn, S. Spicher, S. Grimme, J. Chem. Theory Comput.,
     2021, 17, 4250-4261. DOI: 10.1021/acs.jctc.1c00471
   
   for DFT-D4:
   * E. Caldeweyher, C. Bannwarth and S. Grimme, J. Chem. Phys., 2017,
     147, 034112. DOI: 10.1063/1.4993215
   * E. Caldeweyher, S. Ehlert, A. Hansen, H. Neugebauer, S. Spicher,
     C. Bannwarth and S. Grimme, J. Chem. Phys., 2019, 150, 154122.
     DOI: 10.1063/1.5090222
   * E. Caldeweyher, J.-M. Mewes, S. Ehlert and S. Grimme, Phys. Chem. Chem. Phys.
     2020, 22, 8499-8512. DOI: 10.1039/D0CP00502A
   
   for sTDA-xTB:
   * S. Grimme and C. Bannwarth, J. Chem. Phys., 2016, 145, 054103.
     DOI: 10.1063/1.4959605
   
   in the mass-spec context:
   * V. Asgeirsson, C. Bauer and S. Grimme, Chem. Sci., 2017, 8, 4879.
     DOI: 10.1039/c7sc00601b
   * J. Koopman and S. Grimme, ACS Omega 2019, 4, 12, 15120-15133.
     DOI: 10.1021/acsomega.9b02011
   
   for metadynamics refer to:
   * S. Grimme, J. Chem. Theory Comput., 2019, 155, 2847-2862
     DOI: 10.1021/acs.jctc.9b00143
   
   for SPH calculations refer to:
   * S. Spicher and S. Grimme, J. Chem. Theory Comput., 2021, 17, 1701-1714
     DOI: 10.1021/acs.jctc.0c01306
   
   with help from (in alphabetical order)
   P. Atkinson, C. Bannwarth, F. Bohle, G. Brandenburg, E. Caldeweyher
   M. Checinski, S. Dohm, S. Ehlert, S. Ehrlich, I. Gerasimov, C. Hölzer
   A. Katbashev, J. Koopman, C. Lavigne, S. Lehtola, F. März, M. Müller,
   F. Musil, H. Neugebauer, J. Pisarek, C. Plett, P. Pracht, F. Pultar,
   J. Seibert, P. Shushkov, S. Spicher, M. Stahn, M. Steiner, T. Strunk,
   J. Stückrath, T. Rose, and J. Unsleber
   
 * started run on 2022/11/03 at 12:45:42.173     

           -------------------------------------------------
          |                Calculation Setup                |
           -------------------------------------------------

          program call               : /home/chase/psi4conda/envs/xtbenv/bin/xtb --gfn 2 --chrg 1 --uhf 0 mamm-opt-1-2-090_preQMOPTprefit_xyzformat.xyz --opt --input xtb-opt-1-2-090_constr.txt
          coordinate file            : mamm-opt-1-2-090_preQMOPTprefit_xyzformat.xyz
          omp threads                :                     8

   ID    Z sym.   atoms
    1    6 C      1
    2    7 N      2
    3    1 H      3-8
constraining angle 7 1 2 5 to   89.9950496°, actual value:   89.9950496°

           -------------------------------------------------
          |                 G F N 2 - x T B                 |
           -------------------------------------------------

        Reference                      10.1021/acs.jctc.8b01176
      * Hamiltonian:
        H0-scaling (s, p, d)           1.850000    2.230000    2.230000
        zeta-weighting                 0.500000
      * Dispersion:
        s8                             2.700000
        a1                             0.520000
        a2                             5.000000
        s9                             5.000000
      * Repulsion:
        kExp                           1.500000    1.000000
        rExp                           1.000000
      * Coulomb:
        alpha                          2.000000
        third order                    shell-resolved
        anisotropic                    true
        a3                             3.000000
        a5                             4.000000
        cn-shift                       1.200000
        cn-exp                         4.000000
        max-rad                        5.000000

q/qsh data taken from xtbrestart
CAMM data taken from xtbrestart

          ...................................................
          :                      SETUP                      :
          :.................................................:
          :  # basis functions                  14          :
          :  # atomic orbitals                  14          :
          :  # shells                           10          :
          :  # electrons                        14          :
          :  max. iterations                   250          :
          :  Hamiltonian                  GFN2-xTB          :
          :  restarted?                       true          :
          :  GBSA solvation                  false          :
          :  PC potential                    false          :
          :  electronic temp.          300.0000000     K    :
          :  accuracy                    1.0000000          :
          :  -> integral cutoff          0.2500000E+02      :
          :  -> integral neglect         0.1000000E-07      :
          :  -> SCF convergence          0.1000000E-05 Eh   :
          :  -> wf. convergence          0.1000000E-03 e    :
          :  Broyden damping             0.4000000          :
          ...................................................

 iter      E             dE          RMSdq      gap      omega  full diag
   1     -7.7691863 -0.776919E+01  0.480E-01   10.61       0.0  T
   2     -7.7692696 -0.832956E-04  0.278E-01   10.63       1.0  T
   3     -7.7692715 -0.196142E-05  0.623E-02   10.62       1.0  T
   4     -7.7692726 -0.104326E-05  0.848E-03   10.62       4.2  T
   5     -7.7692726 -0.255380E-08  0.266E-03   10.62      13.3  T
   6     -7.7692726 -0.107485E-08  0.809E-05   10.62     437.2  T
   7     -7.7692726 -0.250466E-11  0.352E-05   10.62    1004.3  T

   *** convergence criteria satisfied after 7 iterations ***

         #    Occupation            Energy/Eh            Energy/eV
      -------------------------------------------------------------
         1        2.0000           -0.9097314             -24.7551
         2        2.0000           -0.8535064             -23.2251
         3        2.0000           -0.8152580             -22.1843
         4        2.0000           -0.8151498             -22.1814
         5        2.0000           -0.7568235             -20.5942
         6        2.0000           -0.6856965             -18.6588
         7        2.0000           -0.6855207             -18.6540 (HOMO)
         8                         -0.2952957              -8.0354 (LUMO)
         9                         -0.1705359              -4.6405
        10                         -0.1222666              -3.3270
        11                         -0.1216191              -3.3094
        12                         -0.0502371              -1.3670
       ...                                ...                  ...
        14                          0.0301324               0.8199
      -------------------------------------------------------------
                  HL-Gap            0.3902250 Eh           10.6186 eV
             Fermi-level           -0.4904082 Eh          -13.3447 eV

 SCC (total)                   0 d,  0 h,  0 min,  0.175 sec
 SCC setup                      ...        0 min,  0.006 sec (  3.191%)
 Dispersion                     ...        0 min,  0.016 sec (  9.143%)
 classical contributions        ...        0 min,  0.007 sec (  4.037%)
 integral evaluation            ...        0 min,  0.028 sec ( 15.834%)
 iterations                     ...        0 min,  0.084 sec ( 47.954%)
 molecular gradient             ...        0 min,  0.035 sec ( 19.754%)
 printout                       ...        0 min,  0.000 sec (  0.076%)

         :::::::::::::::::::::::::::::::::::::::::::::::::::::
         ::                     SUMMARY                     ::
         :::::::::::::::::::::::::::::::::::::::::::::::::::::
         :: total energy              -7.663659307333 Eh    ::
         :: gradient norm              0.017939653852 Eh/a0 ::
         :: HOMO-LUMO gap             10.618561427022 eV    ::
         ::.................................................::
         :: SCC energy                -7.769272588996 Eh    ::
         :: -> isotropic ES            0.119181198425 Eh    ::
         :: -> anisotropic ES         -0.011649015394 Eh    ::
         :: -> anisotropic XC          0.007839465366 Eh    ::
         :: -> dispersion             -0.001374415203 Eh    ::
         :: repulsion energy           0.105613130410 Eh    ::
         :: add. restraining           0.000000000000 Eh    ::
         :: total charge               1.000000000000 e     ::
         :::::::::::::::::::::::::::::::::::::::::::::::::::::

      ----------------------------------------------------------- 
     |                   =====================                   |
     |                        A N C O P T                        |
     |                   =====================                   |
     |               Approximate Normal Coordinate               |
     |                Rational Function Optimizer                |
      ----------------------------------------------------------- 

          ...................................................
          :                      SETUP                      :
          :.................................................:
          :   optimization level            normal          :
          :   max. optcycles                   200          :
          :   ANC micro-cycles                  20          :
          :   degrees of freedom                18          :
          :.................................................:
          :   RF solver                   davidson          :
          :   write xtbopt.log                true          :
          :   linear?                        false          :
          :   energy convergence         0.5000000E-05 Eh   :
          :   grad. convergence          0.1000000E-02 Eh/α :
          :   maximium RF displ.         1.0000000          :
          :   Hlow (freq-cutoff)         0.1000000E-01      :
          :   Hmax (freq-cutoff)         5.0000000          :
          :   S6 in model hess.         20.0000000          :
          ...................................................

generating ANC from model Hessian ...
Using Lindh-Hessian (1995)
 Shifting diagonal of input Hessian by    0.0000000000000000     
 Lowest  eigenvalues of input Hessian
    0.000000    0.000000    0.000000    0.000000    0.000000    0.000000
    0.040440    0.046172    0.059132    0.066398    0.093753    0.098117
    0.141121    0.168684    0.202428    0.226818    0.382703    0.680648
 Highest eigenvalues
    0.723641    1.118942    1.216245    1.359479    1.359534    8.127388


........................................................................
.............................. CYCLE    1 ..............................
........................................................................
   1     -7.7692726 -0.776927E+01  0.457E-06   10.62       0.0  T
   2     -7.7692726 -0.888178E-14  0.255E-06   10.62   13849.2  T
   3     -7.7692726  0.133227E-13  0.404E-07   10.62   87461.8  T
     SCC iter.                  ...        0 min,  0.065 sec
     gradient                   ...        0 min,  0.033 sec
 * total energy  :    -7.6636593 Eh     change       -0.5133671E-12 Eh
   gradient norm :     0.0179396 Eh/α   predicted     0.0000000E+00 (-100.00%)
   displ. norm   :     0.0711379 α      lambda       -0.9994769E-03
   maximum displ.:     0.0548417 α      in ANC's #10, #1, #3, ...

........................................................................
.............................. CYCLE    2 ..............................
........................................................................
   1     -7.7728719 -0.777287E+01  0.176E-01   10.87       0.0  T
   2     -7.7729003 -0.284495E-04  0.932E-02   10.85       1.0  T
   3     -7.7729007 -0.398910E-06  0.356E-02   10.86       1.0  T
   4     -7.7729009 -0.141485E-06  0.357E-03   10.86       9.9  T
   5     -7.7729009 -0.912647E-09  0.904E-04   10.86      39.1  T
   6     -7.7729009 -0.144936E-09  0.132E-04   10.86     267.6  T
     SCC iter.                  ...        0 min,  0.067 sec
     gradient                   ...        0 min,  0.031 sec
 * total energy  :    -7.6643339 Eh     change       -0.6745814E-03 Eh
   gradient norm :     0.0079829 Eh/α   predicted    -0.5022663E-03 ( -25.54%)
   displ. norm   :     0.0512869 α      lambda       -0.2450141E-03
   maximum displ.:     0.0277392 α      in ANC's #1, #10, #3, ...

........................................................................
.............................. CYCLE    3 ..............................
........................................................................
   1     -7.7740043 -0.777400E+01  0.923E-02   11.03       0.0  T
   2     -7.7740135 -0.912934E-05  0.488E-02   11.02       1.0  T
   3     -7.7740136 -0.140116E-06  0.192E-02   11.02       1.8  T
   4     -7.7740136 -0.364669E-07  0.201E-03   11.02      17.6  T
   5     -7.7740136 -0.494583E-09  0.738E-04   11.02      47.9  T
   6     -7.7740136 -0.587823E-10  0.625E-05   11.02     566.0  T
     SCC iter.                  ...        0 min,  0.067 sec
     gradient                   ...        0 min,  0.039 sec
 * total energy  :    -7.6644588 Eh     change       -0.1249127E-03 Eh
   gradient norm :     0.0015754 Eh/α   predicted    -0.1228299E-03 (  -1.67%)
   displ. norm   :     0.0148928 α      lambda       -0.6997537E-05
   maximum displ.:     0.0102246 α      in ANC's #1, #3, #4, ...

........................................................................
.............................. CYCLE    4 ..............................
........................................................................
   1     -7.7737580 -0.777376E+01  0.141E-02   11.01       0.0  T
   2     -7.7737580 -0.269094E-07  0.808E-03   11.01       4.4  T
   3     -7.7737580 -0.467035E-08  0.730E-04   11.01      48.4  T
   4     -7.7737580 -0.213917E-09  0.325E-04   11.01     108.8  T
     SCC iter.                  ...        0 min,  0.048 sec
     gradient                   ...        0 min,  0.033 sec
 * total energy  :    -7.6644640 Eh     change       -0.5232071E-05 Eh
   gradient norm :     0.0023238 Eh/α   predicted    -0.3499843E-05 ( -33.11%)
   displ. norm   :     0.0048142 α      lambda       -0.1982306E-05
   maximum displ.:     0.0032465 α      in ANC's #1, #3, #8, ...

........................................................................
.............................. CYCLE    5 ..............................
........................................................................
   1     -7.7737449 -0.777374E+01  0.625E-03   11.01       0.0  T
   2     -7.7737449 -0.795880E-08  0.356E-03   11.01       9.9  T
   3     -7.7737449 -0.774931E-09  0.485E-04   11.01      72.8  T
   4     -7.7737449 -0.640563E-10  0.146E-04   11.01     242.5  T
     SCC iter.                  ...        0 min,  0.044 sec
     gradient                   ...        0 min,  0.037 sec
 * total energy  :    -7.6644651 Eh     change       -0.1033645E-05 Eh
   gradient norm :     0.0006515 Eh/α   predicted    -0.9902543E-06 (  -4.20%)
   displ. norm   :     0.0022921 α      lambda       -0.2872993E-06
   maximum displ.:     0.0012141 α      in ANC's #3, #4, #8, ...

   *** GEOMETRY OPTIMIZATION CONVERGED AFTER 5 ITERATIONS ***

------------------------------------------------------------------------
 total energy gain   :        -0.0008058 Eh       -0.5056 kcal/mol
 total RMSD          :         0.0458880 a0        0.0243 Å
 total power (kW/mol):        -0.4231044 (step)   -3.2872 (real)
------------------------------------------------------------------------

 ANCopt (total)                0 d,  0 h,  0 min,  0.644 sec
 optimizer setup                ...        0 min,  0.000 sec (  0.009%)
 model hessian                  ...        0 min,  0.002 sec (  0.242%)
 ANC generation                 ...        0 min,  0.000 sec (  0.024%)
 coordinate transformation      ...        0 min,  0.000 sec (  0.003%)
 single point calculation       ...        0 min,  0.621 sec ( 96.536%)
 optimization log               ...        0 min,  0.000 sec (  0.058%)
 hessian update                 ...        0 min,  0.020 sec (  3.034%)
 rational function              ...        0 min,  0.000 sec (  0.055%)

================
 final structure:
================
8
 xtb: 6.5.1 (b24c23e)
C            0.76874095082507       -0.06838560988868        0.08294671297204
N           -0.70481074977790        0.06492798841885       -0.08675424416353
H           -1.19105822637592       -0.24010420270320        0.76733256675309
H           -0.97005800226822        1.03940560733959       -0.27671884961041
H           -1.03891484607287       -0.53397448037057       -0.85313747699222
H            1.09599348387273       -1.07018829090060       -0.18119781883277
H            1.28814373487303        0.66059912068273       -0.53480729739117
H            1.04296165492407        0.12537987742188        1.11836340726498

 Bond Distances (Angstroems)
 ---------------------------
C1-N2=1.4893         C1-H6=1.0865         C1-H7=1.0876         C1-H8=1.0885         N2-C1=1.4893         N2-H3=1.0291         
N2-H4=1.0276         N2-H5=1.0284         H3-N2=1.0291         H4-N2=1.0276         H5-N2=1.0284         H6-C1=1.0865         
H7-C1=1.0876         H8-C1=1.0885         
 C  H  Rav=1.0875 sigma=0.0008  Rmin=1.0865  Rmax=1.0885     3
 N  H  Rav=1.0284 sigma=0.0006  Rmin=1.0276  Rmax=1.0291     3
 N  C  Rav=1.4893 sigma=0.0000  Rmin=1.4893  Rmax=1.4893     1

 selected bond angles (degree)
 --------------------
H6-C1-N2=110.66                H7-C1-N2=110.35                H7-C1-H6=109.64                H8-C1-N2=109.98                
H8-C1-H6=108.63                H8-C1-H7=107.50                H3-N2-C1=110.27                H4-N2-C1=111.18                
H4-N2-H3=108.21                H5-N2-C1=110.75                H5-N2-H3=107.00                H5-N2-H4=109.31                

 selected dihedral angles (degree)
 ---------------------------------
H3-N2-C1-H6= 86.64            H3-N2-C1-H7=208.17            H3-N2-C1-H8=326.61            H4-N2-C1-H6=206.67            
H4-N2-C1-H7=328.20            H4-N2-C1-H8= 86.64            H5-N2-C1-H6=328.40            H5-N2-C1-H7= 89.93            
H5-N2-C1-H8=208.37            
           -------------------------------------------------
          |                Final Singlepoint                |
           -------------------------------------------------

          ...................................................
          :                      SETUP                      :
          :.................................................:
          :  # basis functions                  14          :
          :  # atomic orbitals                  14          :
          :  # shells                           10          :
          :  # electrons                        14          :
          :  max. iterations                   250          :
          :  Hamiltonian                  GFN2-xTB          :
          :  restarted?                      false          :
          :  GBSA solvation                  false          :
          :  PC potential                    false          :
          :  electronic temp.          300.0000000     K    :
          :  accuracy                    1.0000000          :
          :  -> integral cutoff          0.2500000E+02      :
          :  -> integral neglect         0.1000000E-07      :
          :  -> SCF convergence          0.1000000E-05 Eh   :
          :  -> wf. convergence          0.1000000E-03 e    :
          :  Broyden damping             0.4000000          :
          ...................................................

 iter      E             dE          RMSdq      gap      omega  full diag
   1     -7.7737449 -0.777374E+01  0.126E-05   11.01       0.0  T
   2     -7.7737449 -0.950351E-13  0.662E-06   11.01    5344.7  T
   3     -7.7737449 -0.248690E-13  0.126E-06   11.01   28033.4  T

   *** convergence criteria satisfied after 3 iterations ***

         #    Occupation            Energy/Eh            Energy/eV
      -------------------------------------------------------------
         1        2.0000           -0.9126859             -24.8354
         2        2.0000           -0.8550478             -23.2670
         3        2.0000           -0.8185381             -22.2736
         4        2.0000           -0.8170347             -22.2326
         5        2.0000           -0.7595631             -20.6688
         6        2.0000           -0.6858056             -18.6617
         7        2.0000           -0.6834905             -18.5987 (HOMO)
         8                         -0.2789557              -7.5908 (LUMO)
         9                         -0.1642271              -4.4688
        10                         -0.1219334              -3.3180
        11                         -0.1135642              -3.0902
        12                         -0.0321960              -0.8761
       ...                                ...                  ...
        14                          0.0388929               1.0583
      -------------------------------------------------------------
                  HL-Gap            0.4045348 Eh           11.0080 eV
             Fermi-level           -0.4812231 Eh          -13.0947 eV

 SCC (total)                   0 d,  0 h,  0 min,  0.093 sec
 SCC setup                      ...        0 min,  0.004 sec (  3.975%)
 Dispersion                     ...        0 min,  0.007 sec (  7.827%)
 classical contributions        ...        0 min,  0.004 sec (  3.910%)
 integral evaluation            ...        0 min,  0.011 sec ( 11.886%)
 iterations                     ...        0 min,  0.034 sec ( 37.149%)
 molecular gradient             ...        0 min,  0.032 sec ( 35.129%)
 printout                       ...        0 min,  0.000 sec (  0.111%)

         :::::::::::::::::::::::::::::::::::::::::::::::::::::
         ::                     SUMMARY                     ::
         :::::::::::::::::::::::::::::::::::::::::::::::::::::
         :: total energy              -7.664465067139 Eh    ::
         :: gradient norm              0.000651694399 Eh/a0 ::
         :: HOMO-LUMO gap             11.007953249605 eV    ::
         ::.................................................::
         :: SCC energy                -7.773744896877 Eh    ::
         :: -> isotropic ES            0.119621755553 Eh    ::
         :: -> anisotropic ES         -0.012003556891 Eh    ::
         :: -> anisotropic XC          0.007664023768 Eh    ::
         :: -> dispersion             -0.001377211335 Eh    ::
         :: repulsion energy           0.109276932829 Eh    ::
         :: add. restraining           0.000002752652 Eh    ::
         :: total charge               1.000000000000 e     ::
         :::::::::::::::::::::::::::::::::::::::::::::::::::::

           -------------------------------------------------
          |                Property Printout                |
           -------------------------------------------------

    * Orbital Energies and Occupations

         #    Occupation            Energy/Eh            Energy/eV
      -------------------------------------------------------------
         1        2.0000           -0.9126859             -24.8354
         2        2.0000           -0.8550478             -23.2670
         3        2.0000           -0.8185381             -22.2736
         4        2.0000           -0.8170347             -22.2326
         5        2.0000           -0.7595631             -20.6688
         6        2.0000           -0.6858056             -18.6617
         7        2.0000           -0.6834905             -18.5987 (HOMO)
         8                         -0.2789557              -7.5908 (LUMO)
         9                         -0.1642271              -4.4688
        10                         -0.1219334              -3.3180
        11                         -0.1135642              -3.0902
        12                         -0.0321960              -0.8761
        13                          0.0258915               0.7045
        14                          0.0388929               1.0583
      -------------------------------------------------------------
                  HL-Gap            0.4045348 Eh           11.0080 eV
             Fermi-level           -0.4812231 Eh          -13.0947 eV

     #   Z          covCN         q      C6AA      α(0)
     1   6 C        3.679    -0.101    22.670     6.820
     2   7 N        3.482    -0.111    23.411     7.186
     3   1 H        0.859     0.277     0.787     1.390
     4   1 H        0.859     0.278     0.784     1.387
     5   1 H        0.859     0.277     0.785     1.388
     6   1 H        0.925     0.128     1.553     1.949
     7   1 H        0.925     0.127     1.557     1.951
     8   1 H        0.925     0.126     1.568     1.958

 Mol. C6AA /au·bohr⁶  :        255.326657
 Mol. C8AA /au·bohr⁸  :       4969.921362
 Mol. α(0) /au        :         24.029311


Wiberg/Mayer (AO) data.
largest (>0.10) Wiberg bond orders for each atom

 ---------------------------------------------------------------------------
     #   Z sym  total        # sym  WBO       # sym  WBO       # sym  WBO
 ---------------------------------------------------------------------------
     1   6 C    3.875 --     8 H    0.974     7 H    0.974     6 H    0.974
                             2 N    0.952
     2   7 N    3.684 --     1 C    0.952     4 H    0.911     3 H    0.910
                             5 H    0.910
     3   1 H    0.923 --     2 N    0.910
     4   1 H    0.923 --     2 N    0.911
     5   1 H    0.923 --     2 N    0.910
     6   1 H    0.984 --     1 C    0.974
     7   1 H    0.984 --     1 C    0.974
     8   1 H    0.984 --     1 C    0.974
 ---------------------------------------------------------------------------

Topologies differ in total number of bonds
Writing topology from bond orders to xtbtopo.mol

molecular dipole:
                 x           y           z       tot (Debye)
 q only:       -0.854       0.070      -0.095
   full:       -1.075       0.087      -0.114       2.758
molecular quadrupole (traceless):
                xx          xy          yy          xz          yz          zz
 q only:        2.676      -0.330      -1.296       0.470      -0.032      -1.379
  q+dip:        1.445      -0.147      -0.609       0.268      -0.001      -0.837
   full:        2.098      -0.234      -0.965       0.379      -0.015      -1.133

           -------------------------------------------------
          |                Geometry Summary                 |
           -------------------------------------------------

      molecular mass/u    :       32.0650836
   center of mass at/Å    :       -0.0127884       0.0021529      -0.0055743
  moments of inertia/u·Å² :        0.5941320E+01   0.2481368E+02   0.2490405E+02
rotational constants/cm⁻¹ :        0.2837355E+01   0.6793685E+00   0.6769034E+00

 * 7 selected distances

     #   Z          #   Z                                           value/Å
     1   6 C        2   7 N                                       1.4892703 (max)
     2   7 N        3   1 H                                       1.0290509
     2   7 N        4   1 H                                       1.0276427 (min)
     2   7 N        5   1 H                                       1.0284227
     1   6 C        6   1 H                                       1.0864968
     1   6 C        7   1 H                                       1.0875745
     1   6 C        8   1 H                                       1.0884990

 * 3 distinct bonds (by element types)

   Z      Z             #   av. dist./Å        max./Å        min./Å
   1 H    6 C           3     1.0875234     1.0884990     1.0864968
   1 H    7 N           3     1.0283721     1.0290509     1.0276427
   6 C    7 N           1     1.4892703     1.4892703     1.4892703


optimized geometry written to: xtbopt.xyz


           -------------------------------------------------
          | TOTAL ENERGY               -7.664465067139 Eh   |
          | GRADIENT NORM               0.000651694399 Eh/α |
          | HOMO-LUMO GAP              11.007953249605 eV   |
           -------------------------------------------------

------------------------------------------------------------------------
 * finished run on 2022/11/03 at 12:45:43.144     
------------------------------------------------------------------------
 total:
 * wall-time:     0 d,  0 h,  0 min,  0.971 sec
 *  cpu-time:     0 d,  0 h,  0 min,  7.749 sec
 * ratio c/w:     7.981 speedup
 SCF:
 * wall-time:     0 d,  0 h,  0 min,  0.175 sec
 *  cpu-time:     0 d,  0 h,  0 min,  1.393 sec
 * ratio c/w:     7.955 speedup
 ANC optimizer:
 * wall-time:     0 d,  0 h,  0 min,  0.737 sec
 *  cpu-time:     0 d,  0 h,  0 min,  5.884 sec
 * ratio c/w:     7.987 speedup

