2022-11-03:12:47:12,468 INFO     [psi4.driver.task_planner:266] PLANNING Atomic:  keywords={'FREEZE_CORE': 'TRUE', 'function_kwargs': {}}
2022-11-03:12:47:12,472 INFO     [psi4.driver.driver:499] Compute energy(): method=wb97x-d, basis=6-311+g*, molecule=default, nre=48.02994254304679
2022-11-03:12:47:15,400 INFO     [psi4.driver.driver:502] Return energy(): -96.2064462395509
io,
    A. Alenaizan, A. M. James, S. Lehtola, J. P. Misiewicz, M. Scheurer,
    R. A. Shaw, J. B. Schriber, Y. Xie, Z. L. Glick, D. A. Sirianni,
    J. S. O'Brien, J. M. Waldrop, A. Kumar, E. G. Hohenstein,
    B. P. Pritchard, B. R. Brooks, H. F. Schaefer III, A. Yu. Sokolov,
    K. Patkowski, A. E. DePrince III, U. Bozkaya, R. A. King,
    F. A. Evangelista, J. M. Turney, T. D. Crawford, C. D. Sherrill,
    J. Chem. Phys. 152(18) 184108 (2020). https://doi.org/10.1063/5.0006002

                            Additional Code Authors
    E. T. Seidl, C. L. Janssen, E. F. Valeev, M. L. Leininger,
    J. F. Gonthier, R. M. Richard, H. R. McAlexander, M. Saitow, X. Wang,
    P. Verma, M. H. Lechner, and A. Jiang

             Previous Authors, Complete List of Code Contributors,
                       and Citations for Specific Modules
    https://github.com/psi4/psi4/blob/master/codemeta.json
    https://github.com/psi4/psi4/graphs/contributors
    http://psicode.org/psi4manual/master/introduction.html#citing-psifour

    -----------------------------------------------------------------------


    Psi4 started on: Thursday, 03 November 2022 12:47PM

    Process ID: 7948
    Host:       DESKTOP-26BCFJT
    PSIDATADIR: /home/chase/psi4conda/share/psi4
    Memory:     500.0 MiB
    Threads:    1
    
  ==> Input File <==

--------------------------------------------------------------------------
molecule { 
1 1
 C    0.766792   -0.042975    0.096927
 N   -0.703883    0.037936   -0.089171
 H   -0.958480   -0.202227   -1.056767
 H   -1.183865   -0.614978    0.544915
 H   -1.040381    0.989935    0.108838
 H    1.028369    0.212046    1.121638
 H    1.115166   -1.051741   -0.114046
 H    1.267276    0.649665   -0.576310
}
memory 1GB
set_num_threads(2)
psi4_io.set_default_path("/home/chase/temp/Psi4-mamm")
set freeze_core True
E, wfn = energy('wb97x-d/6-311+G*',return_wfn=True)
oeprop(wfn,"WIBERG_LOWDIN_INDICES")
clean()
--------------------------------------------------------------------------

  Memory set to 953.674 MiB by Python driver.
  Threads set to 2 by Python driver.

Scratch directory: /home/chase/temp/Psi4-mamm/

*** tstart() called on DESKTOP-26BCFJT
*** at Thu Nov  3 12:47:12 2022

   => Loading Basis Set <=

    Name: 6-311+G*
    Role: ORBITAL
    Keyword: BASIS
    atoms 1   entry C          line   130 file /home/chase/psi4conda/share/psi4/basis/6-311pgs.gbs 
    atoms 2   entry N          line   151 file /home/chase/psi4conda/share/psi4/basis/6-311pgs.gbs 
    atoms 3-8 entry H          line    47 file /home/chase/psi4conda/share/psi4/basis/6-311pgs.gbs 

   => WB97X-D: Empirical Dispersion <=

    Chai and Head-Gordon Dispersion Correction
    Chai, J.-D.; Head-Gordon, M. (2010), J. Chem. Phys., 132: 6615-6620

        s6 =       1.000000


         ---------------------------------------------------------
                                   SCF
               by Justin Turney, Rob Parrish, Andy Simmonett
                          and Daniel G. A. Smith
                              RKS Reference
                        2 Threads,    953 MiB Core
         ---------------------------------------------------------

  ==> Geometry <==

    Molecular point group: c1
    Full point group: C1

    Geometry (in Angstrom), charge = 1, multiplicity = 1:

       Center              X                  Y                   Z               Mass       
    ------------   -----------------  -----------------  -----------------  -----------------
         C            0.780057261965    -0.042915257217     0.098707183181    12.000000000000
         N           -0.690617738035     0.037995742783    -0.087390816819    14.003074004430
         H           -0.945214738035    -0.202167257217    -1.054986816819     1.007825032230
         H           -1.170599738035    -0.614918257217     0.546695183181     1.007825032230
         H           -1.027115738035     0.989994742783     0.110618183181     1.007825032230
         H            1.041634261965     0.212105742783     1.123418183181     1.007825032230
         H            1.128431261965    -1.051681257217    -0.112265816819     1.007825032230
         H            1.280541261965     0.649724742783    -0.574529816819     1.007825032230

  Running in c1 symmetry.

  Rotational constants: A =      2.82634  B =      0.68286  C =      0.68286 [cm^-1]
  Rotational constants: A =  84731.66145  B =  20471.65275  C =  20471.60665 [MHz]
  Nuclear repulsion =   48.029942543046793

  Charge       = 1
  Multiplicity = 1
  Electrons    = 18
  Nalpha       = 9
  Nbeta        = 9

  ==> Algorithm <==

  SCF Algorithm Type is DF.
  DIIS enabled.
  MOM disabled.
  Fractional occupation disabled.
  Guess Type is SAD.
  Energy threshold   = 1.00e-06
  Density threshold  = 1.00e-06
  Integral threshold = 1.00e-12

  ==> Primary Basis <==

  Basis Set: 6-311+G*
    Blend: 6-311+G*
    Number of shells: 38
    Number of basis functions: 62
    Number of Cartesian functions: 64
    Spherical Harmonics?: true
    Max angular momentum: 2

  ==> DFT Potential <==

   => LibXC <=

    Version 5.1.5
    S. Lehtola, C. Steigemann, M. J. Oliveira, and M. A. Marques, SoftwareX 7, 1 (2018) (10.1016/j.softx.2017.11.002)

   => Composite Functional: WB97X-D <= 

    wB97X-D Hyb-GGA Exchange-Correlation Functional

    J.-D. Chai and M. Head-Gordon, Phys. Chem. Chem. Phys. 10, 6615 (2008) (10.1039/B810189B)

    Deriv               =              1
    GGA                 =           TRUE
    Meta                =          FALSE

    Exchange Hybrid     =           TRUE
    MP2 Hybrid          =          FALSE

   => Exchange-Correlation Functionals <=

    1.0000   wB97X-D range-separated functional

   => Exact (HF) Exchange <=

    0.7780            HF,LR [omega = 0.2000]
    0.2220               HF 

   => LibXC Density Thresholds  <==

    XC_HYB_GGA_XC_WB97X_D:  1.00E-14 

   => Molecular Quadrature <=

    Radial Scheme          =       TREUTLER
    Pruning Scheme         =           NONE
    Nuclear Scheme         =       TREUTLER

    Blocking Scheme        =         OCTREE
    BS radius alpha        =              1
    Pruning alpha          =              1
    Radial Points          =             75
    Spherical Points       =            302
    Total Points           =         174029
    Total Blocks           =           1362
    Max Points             =            256
    Max Functions          =             62
    Weights Tolerance      =       1.00E-15

   => Loading Basis Set <=

    Name: (6-311+G* AUX)
    Role: JKFIT
    Keyword: DF_BASIS_SCF
    atoms 1   entry C          line   200 file /home/chase/psi4conda/share/psi4/basis/heavy-aug-cc-pvtz-jkfit.gbs 
    atoms 2   entry N          line   262 file /home/chase/psi4conda/share/psi4/basis/heavy-aug-cc-pvtz-jkfit.gbs 
    atoms 3-8 entry H          line   116 file /home/chase/psi4conda/share/psi4/basis/heavy-aug-cc-pvtz-jkfit.gbs 

  ==> Integral Setup <==

  DFHelper Memory: AOs need 0.035 GiB; user supplied 0.406 GiB. Using in-core AOs.

  ==> MemDFJK: Density-Fitted J/K Matrices <==

    J tasked:                   Yes
    K tasked:                   Yes
    wK tasked:                  Yes
    Omega:                2.000E-01
    OpenMP threads:               2
    Memory [MiB]:               415
    Algorithm:                 Core
    Schwarz Cutoff:           1E-12
    Mask sparsity (%):       0.0000
    Fitting Condition:        1E-10

   => Auxiliary Basis Set <=

  Basis Set: (6-311+G* AUX)
    Blend: HEAVY-AUG-CC-PVTZ-JKFIT
    Number of shells: 120
    Number of basis functions: 388
    Number of Cartesian functions: 472
    Spherical Harmonics?: true
    Max angular momentum: 4

  Cached 100.0% of DFT collocation blocks in 0.292 [GiB].

  Minimum eigenvalue in the overlap matrix is 7.5514197627E-04.
  Reciprocal condition number of the overlap matrix is 9.1235522298E-05.
    Using symmetric orthogonalization.

  ==> Pre-Iterations <==

  SCF Guess: Superposition of Atomic Densities via on-the-fly atomic UHF (no occupation information).

   -------------------------
    Irrep   Nso     Nmo    
   -------------------------
     A         62      62 
   -------------------------
    Total      62      62
   -------------------------

  ==> Iterations <==

                           Total Energy        Delta E     RMS |[F,P]|

   @DF-RKS iter SAD:   -96.08029204535684   -9.60803e+01   0.00000e+00 
   @DF-RKS iter   1:   -96.09054385742114   -1.02518e-02   7.98558e-03 DIIS/ADIIS
   @DF-RKS iter   2:   -96.14956160012582   -5.90177e-02   5.92646e-03 DIIS/ADIIS
   @DF-RKS iter   3:   -96.20549855095800   -5.59370e-02   7.02549e-04 DIIS/ADIIS
   @DF-RKS iter   4:   -96.20628419121302   -7.85640e-04   3.12843e-04 DIIS/ADIIS
   @DF-RKS iter   5:   -96.20644199605508   -1.57805e-04   4.51781e-05 DIIS
   @DF-RKS iter   6:   -96.20644614430813   -4.14825e-06   5.70683e-06 DIIS
   @DF-RKS iter   7:   -96.20644623955090   -9.52428e-08   7.46402e-07 DIIS
  Energy and wave function converged.


  ==> Post-Iterations <==

   Electrons on quadrature grid:
      Ntotal   =   17.9999902839 ; deviation = -9.716e-06 

    Orbital Energies [Eh]
    ---------------------

    Doubly Occupied:                                                      

       1A    -14.784213     2A    -10.540441     3A     -1.331638  
       4A     -1.033525     5A     -0.902244     6A     -0.902225  
       7A     -0.801531     8A     -0.707509     9A     -0.707485  

    Virtual:                                                              

      10A     -0.138358    11A     -0.073724    12A     -0.070742  
      13A     -0.070740    14A     -0.020319    15A     -0.004347  
      16A     -0.004344    17A      0.002688    18A      0.002691  
      19A      0.028043    20A      0.043622    21A      0.043624  
      22A      0.048359    23A      0.102231    24A      0.195940  
      25A      0.282963    26A      0.282971    27A      0.344915  
      28A      0.344934    29A      0.378093    30A      0.457940  
      31A      0.457943    32A      0.462999    33A      0.530870  
      34A      0.563901    35A      0.563904    36A      0.626424  
      37A      0.753378    38A      1.061180    39A      1.120547  
      40A      1.120596    41A      1.422629    42A      1.422691  
      43A      1.542345    44A      1.801220    45A      1.801264  
      46A      1.870680    47A      1.870720    48A      2.080908  
      49A      2.340632    50A      2.369334    51A      2.369349  
      52A      2.452842    53A      2.594296    54A      2.594323  
      55A      2.993481    56A      2.993502    57A      3.126723  
      58A      3.783088    59A      3.783094    60A      4.250924  
      61A     23.389161    62A     35.154656  

    Final Occupation by Irrep:
              A 
    DOCC [     9 ]

  @DF-RKS Final Energy:   -96.20644623955090

   => Energetics <=

    Nuclear Repulsion Energy =             48.0299425430467934
    One-Electron Energy =                -218.4747674638897195
    Two-Electron Energy =                  83.9812179562118075
    DFT Exchange-Correlation Energy =      -9.7409566118852613
    Empirical Dispersion Energy =          -0.0018826630345054
    VV10 Nonlocal Energy =                  0.0000000000000000
    Total Energy =                        -96.2064462395508997

Computation Completed


Properties will be evaluated at   0.000000,   0.000000,   0.000000 [a0]

Properties computed using the SCF density matrix


 Multipole Moments:

 ------------------------------------------------------------------------------------
     Multipole            Electronic (a.u.)      Nuclear  (a.u.)        Total (a.u.)
 ------------------------------------------------------------------------------------

 L = 1.  Multiply by 2.5417464519 to convert [e a0] to [Debye]
 Dipole X            :         -1.1606401            0.2904433           -0.8701968
 Dipole Y            :          0.0638494           -0.0159925            0.0478569
 Dipole Z            :         -0.1469061            0.0367674           -0.1101387
 Magnitude           :                                                    0.8784437

 ------------------------------------------------------------------------------------

*** tstop() called on DESKTOP-26BCFJT at Thu Nov  3 12:47:15 2022
Module time:
	user time   =       5.46 seconds =       0.09 minutes
	system time =       0.22 seconds =       0.00 minutes
	total time  =          3 seconds =       0.05 minutes
Total time:
	user time   =       5.46 seconds =       0.09 minutes
	system time =       0.22 seconds =       0.00 minutes
	total time  =          3 seconds =       0.05 minutes


Properties will be evaluated at   0.000000,   0.000000,   0.000000 [a0]
OEProp: No title given, name of density matrix used for the following properties is 'SCF density'


  Wiberg Bond Indices using Orthogonal Lowdin Orbitals:

  Irrep: 1 Size: 8 x 8

                 1                   2                   3                   4                   5

    1     0.00000000000000     1.22708246534154     0.03255992574151     0.03256032377087     0.03256102882961
    2     1.22708246534154     0.00000000000000     0.85595081157732     0.85596206734039     0.85596363578839
    3     0.03255992574151     0.85595081157732     0.00000000000000     0.00820014053010     0.00820029404744
    4     0.03256032377087     0.85596206734039     0.00820014053010     0.00000000000000     0.00819957947947
    5     0.03256102882961     0.85596363578839     0.00820029404744     0.00819957947947     0.00000000000000
    6     0.90627227620031     0.04360307500788     0.00945291444526     0.00341122987477     0.00341090726809
    7     0.90627610700912     0.04360083701921     0.00341096010038     0.00341117752100     0.00945341574156
    8     0.90627461087652     0.04360116086488     0.00341065691174     0.00945381939992     0.00341147418423

                 6                   7                   8

    1     0.90627227620031     0.90627610700912     0.90627461087652
    2     0.04360307500788     0.04360083701921     0.04360116086488
    3     0.00945291444526     0.00341096010038     0.00341065691174
    4     0.00341122987477     0.00341117752100     0.00945381939992
    5     0.00341090726809     0.00945341574156     0.00341147418423
    6     0.00000000000000     0.01054297158333     0.01054342270265
    7     0.01054297158333     0.00000000000000     0.01054039313318
    8     0.01054342270265     0.01054039313318     0.00000000000000



  Atomic Valences: 

 #  #
 Irrep: 1
      1:    4.043586737769470
      2:    3.925764052939607
      3:    0.921185703353748
      4:    0.921198337916531
      5:    0.921200335338789
      6:    0.987236797082293
      7:    0.987235862107784
      8:    0.987235538073120


    Psi4 stopped on: Thursday, 03 November 2022 12:47PM
    Psi4 wall time for execution: 0:00:02.98

*** Psi4 exiting successfully. Buy a developer a beer!
