2022-11-03:12:47:00,467 INFO     [psi4.driver.task_planner:266] PLANNING Atomic:  keywords={'FREEZE_CORE': 'TRUE', 'function_kwargs': {}}
2022-11-03:12:47:00,472 INFO     [psi4.driver.driver:499] Compute energy(): method=wb97x-d, basis=6-311+g*, molecule=default, nre=47.95991657937193
2022-11-03:12:47:03,233 INFO     [psi4.driver.driver:502] Return energy(): -96.20452305654008
o,
    A. Alenaizan, A. M. James, S. Lehtola, J. P. Misiewicz, M. Scheurer,
    R. A. Shaw, J. B. Schriber, Y. Xie, Z. L. Glick, D. A. Sirianni,
    J. S. O'Brien, J. M. Waldrop, A. Kumar, E. G. Hohenstein,
    B. P. Pritchard, B. R. Brooks, H. F. Schaefer III, A. Yu. Sokolov,
    K. Patkowski, A. E. DePrince III, U. Bozkaya, R. A. King,
    F. A. Evangelista, J. M. Turney, T. D. Crawford, C. D. Sherrill,
    J. Chem. Phys. 152(18) 184108 (2020). https://doi.org/10.1063/5.0006002

                            Additional Code Authors
    E. T. Seidl, C. L. Janssen, E. F. Valeev, M. L. Leininger,
    J. F. Gonthier, R. M. Richard, H. R. McAlexander, M. Saitow, X. Wang,
    P. Verma, M. H. Lechner, and A. Jiang

             Previous Authors, Complete List of Code Contributors,
                       and Citations for Specific Modules
    https://github.com/psi4/psi4/blob/master/codemeta.json
    https://github.com/psi4/psi4/graphs/contributors
    http://psicode.org/psi4manual/master/introduction.html#citing-psifour

    -----------------------------------------------------------------------


    Psi4 started on: Thursday, 03 November 2022 12:47PM

    Process ID: 7912
    Host:       DESKTOP-26BCFJT
    PSIDATADIR: /home/chase/psi4conda/share/psi4
    Memory:     500.0 MiB
    Threads:    1
    
  ==> Input File <==

--------------------------------------------------------------------------
molecule { 
1 1
 C    0.767569   -0.064858    0.094743
 N   -0.705820    0.060075   -0.082654
 H   -1.147325   -0.869221   -0.056115
 H   -1.122395    0.634049    0.661109
 H   -0.929244    0.473029   -0.997390
 H    1.005916   -0.893336    0.756229
 H    1.253457   -0.212300   -0.866912
 H    1.168840    0.850222    0.527016
}
memory 1GB
set_num_threads(2)
psi4_io.set_default_path("/home/chase/temp/Psi4-mamm")
set freeze_core True
E, wfn = energy('wb97x-d/6-311+G*',return_wfn=True)
oeprop(wfn,"WIBERG_LOWDIN_INDICES")
clean()
--------------------------------------------------------------------------

  Memory set to 953.674 MiB by Python driver.
  Threads set to 2 by Python driver.

Scratch directory: /home/chase/temp/Psi4-mamm/

*** tstart() called on DESKTOP-26BCFJT
*** at Thu Nov  3 12:47:00 2022

   => Loading Basis Set <=

    Name: 6-311+G*
    Role: ORBITAL
    Keyword: BASIS
    atoms 1   entry C          line   130 file /home/chase/psi4conda/share/psi4/basis/6-311pgs.gbs 
    atoms 2   entry N          line   151 file /home/chase/psi4conda/share/psi4/basis/6-311pgs.gbs 
    atoms 3-8 entry H          line    47 file /home/chase/psi4conda/share/psi4/basis/6-311pgs.gbs 

   => WB97X-D: Empirical Dispersion <=

    Chai and Head-Gordon Dispersion Correction
    Chai, J.-D.; Head-Gordon, M. (2010), J. Chem. Phys., 132: 6615-6620

        s6 =       1.000000


         ---------------------------------------------------------
                                   SCF
               by Justin Turney, Rob Parrish, Andy Simmonett
                          and Daniel G. A. Smith
                              RKS Reference
                        2 Threads,    953 MiB Core
         ---------------------------------------------------------

  ==> Geometry <==

    Molecular point group: c1
    Full point group: C1

    Geometry (in Angstrom), charge = 1, multiplicity = 1:

       Center              X                  Y                   Z               Mass       
    ------------   -----------------  -----------------  -----------------  -----------------
         C            0.781353039920    -0.066269677147     0.094629732409    12.000000000000
         N           -0.692035960080     0.058663322853    -0.082767267591    14.003074004430
         H           -1.133540960080    -0.870632677147    -0.056228267591     1.007825032230
         H           -1.108610960080     0.632637322853     0.660995732409     1.007825032230
         H           -0.915459960080     0.471617322853    -0.997503267591     1.007825032230
         H            1.019700039920    -0.894747677147     0.756115732409     1.007825032230
         H            1.267241039920    -0.213711677147    -0.867025267591     1.007825032230
         H            1.182624039920     0.848810322853     0.526902732409     1.007825032230

  Running in c1 symmetry.

  Rotational constants: A =      2.83773  B =      0.67902  C =      0.67768 [cm^-1]
  Rotational constants: A =  85072.88575  B =  20356.53331  C =  20316.32785 [MHz]
  Nuclear repulsion =   47.959916579371928

  Charge       = 1
  Multiplicity = 1
  Electrons    = 18
  Nalpha       = 9
  Nbeta        = 9

  ==> Algorithm <==

  SCF Algorithm Type is DF.
  DIIS enabled.
  MOM disabled.
  Fractional occupation disabled.
  Guess Type is SAD.
  Energy threshold   = 1.00e-06
  Density threshold  = 1.00e-06
  Integral threshold = 1.00e-12

  ==> Primary Basis <==

  Basis Set: 6-311+G*
    Blend: 6-311+G*
    Number of shells: 38
    Number of basis functions: 62
    Number of Cartesian functions: 64
    Spherical Harmonics?: true
    Max angular momentum: 2

  ==> DFT Potential <==

   => LibXC <=

    Version 5.1.5
    S. Lehtola, C. Steigemann, M. J. Oliveira, and M. A. Marques, SoftwareX 7, 1 (2018) (10.1016/j.softx.2017.11.002)

   => Composite Functional: WB97X-D <= 

    wB97X-D Hyb-GGA Exchange-Correlation Functional

    J.-D. Chai and M. Head-Gordon, Phys. Chem. Chem. Phys. 10, 6615 (2008) (10.1039/B810189B)

    Deriv               =              1
    GGA                 =           TRUE
    Meta                =          FALSE

    Exchange Hybrid     =           TRUE
    MP2 Hybrid          =          FALSE

   => Exchange-Correlation Functionals <=

    1.0000   wB97X-D range-separated functional

   => Exact (HF) Exchange <=

    0.7780            HF,LR [omega = 0.2000]
    0.2220               HF 

   => LibXC Density Thresholds  <==

    XC_HYB_GGA_XC_WB97X_D:  1.00E-14 

   => Molecular Quadrature <=

    Radial Scheme          =       TREUTLER
    Pruning Scheme         =           NONE
    Nuclear Scheme         =       TREUTLER

    Blocking Scheme        =         OCTREE
    BS radius alpha        =              1
    Pruning alpha          =              1
    Radial Points          =             75
    Spherical Points       =            302
    Total Points           =         174103
    Total Blocks           =           1354
    Max Points             =            256
    Max Functions          =             62
    Weights Tolerance      =       1.00E-15

   => Loading Basis Set <=

    Name: (6-311+G* AUX)
    Role: JKFIT
    Keyword: DF_BASIS_SCF
    atoms 1   entry C          line   200 file /home/chase/psi4conda/share/psi4/basis/heavy-aug-cc-pvtz-jkfit.gbs 
    atoms 2   entry N          line   262 file /home/chase/psi4conda/share/psi4/basis/heavy-aug-cc-pvtz-jkfit.gbs 
    atoms 3-8 entry H          line   116 file /home/chase/psi4conda/share/psi4/basis/heavy-aug-cc-pvtz-jkfit.gbs 

  ==> Integral Setup <==

  DFHelper Memory: AOs need 0.035 GiB; user supplied 0.408 GiB. Using in-core AOs.

  ==> MemDFJK: Density-Fitted J/K Matrices <==

    J tasked:                   Yes
    K tasked:                   Yes
    wK tasked:                  Yes
    Omega:                2.000E-01
    OpenMP threads:               2
    Memory [MiB]:               417
    Algorithm:                 Core
    Schwarz Cutoff:           1E-12
    Mask sparsity (%):       0.0000
    Fitting Condition:        1E-10

   => Auxiliary Basis Set <=

  Basis Set: (6-311+G* AUX)
    Blend: HEAVY-AUG-CC-PVTZ-JKFIT
    Number of shells: 120
    Number of basis functions: 388
    Number of Cartesian functions: 472
    Spherical Harmonics?: true
    Max angular momentum: 4

  Cached 100.0% of DFT collocation blocks in 0.291 [GiB].

  Minimum eigenvalue in the overlap matrix is 8.1533474292E-04.
  Reciprocal condition number of the overlap matrix is 9.8638536995E-05.
    Using symmetric orthogonalization.

  ==> Pre-Iterations <==

  SCF Guess: Superposition of Atomic Densities via on-the-fly atomic UHF (no occupation information).

   -------------------------
    Irrep   Nso     Nmo    
   -------------------------
     A         62      62 
   -------------------------
    Total      62      62
   -------------------------

  ==> Iterations <==

                           Total Energy        Delta E     RMS |[F,P]|

   @DF-RKS iter SAD:   -96.07479859413780   -9.60748e+01   0.00000e+00 
   @DF-RKS iter   1:   -96.08888303476010   -1.40844e-02   7.98009e-03 DIIS/ADIIS
   @DF-RKS iter   2:   -96.14780023133957   -5.89172e-02   5.91719e-03 DIIS/ADIIS
   @DF-RKS iter   3:   -96.20356802203793   -5.57678e-02   7.07124e-04 DIIS/ADIIS
   @DF-RKS iter   4:   -96.20436245793140   -7.94436e-04   3.11397e-04 DIIS/ADIIS
   @DF-RKS iter   5:   -96.20451879281940   -1.56335e-04   4.54458e-05 DIIS
   @DF-RKS iter   6:   -96.20452296609999   -4.17328e-06   5.64013e-06 DIIS
   @DF-RKS iter   7:   -96.20452305654008   -9.04401e-08   7.22954e-07 DIIS
  Energy and wave function converged.


  ==> Post-Iterations <==

   Electrons on quadrature grid:
      Ntotal   =   17.9999933898 ; deviation = -6.610e-06 

    Orbital Energies [Eh]
    ---------------------

    Doubly Occupied:                                                      

       1A    -14.783864     2A    -10.540197     3A     -1.330901  
       4A     -1.033486     5A     -0.903880     6A     -0.899392  
       7A     -0.801938     8A     -0.708709     9A     -0.704551  

    Virtual:                                                              

      10A     -0.138328    11A     -0.074291    12A     -0.070820  
      13A     -0.070368    14A     -0.020667    15A     -0.019893  
      16A     -0.016695    17A      0.002878    18A      0.003909  
      19A      0.028031    20A      0.047518    21A      0.068161  
      22A      0.069372    23A      0.104023    24A      0.188135  
      25A      0.283114    26A      0.283940    27A      0.327551  
      28A      0.334575    29A      0.372980    30A      0.465049  
      31A      0.476206    32A      0.478202    33A      0.531151  
      34A      0.560861    35A      0.563729    36A      0.611341  
      37A      0.768566    38A      1.071462    39A      1.100753  
      40A      1.109674    41A      1.425920    42A      1.428513  
      43A      1.534831    44A      1.794178    45A      1.802211  
      46A      1.875405    47A      1.884375    48A      2.085880  
      49A      2.336500    50A      2.340182    51A      2.345902  
      52A      2.441533    53A      2.622397    54A      2.630117  
      55A      2.986332    56A      2.990341    57A      3.116339  
      58A      3.780258    59A      3.786623    60A      4.253456  
      61A     23.391083    62A     35.155637  

    Final Occupation by Irrep:
              A 
    DOCC [     9 ]

  @DF-RKS Final Energy:   -96.20452305654008

   => Energetics <=

    Nuclear Repulsion Energy =             47.9599165793719280
    One-Electron Energy =                -218.3390209969873865
    Two-Electron Energy =                  83.9169442229433145
    DFT Exchange-Correlation Energy =      -9.7405377489951093
    Empirical Dispersion Energy =          -0.0018251128728452
    VV10 Nonlocal Energy =                  0.0000000000000000
    Total Energy =                        -96.2045230565400971

Computation Completed


Properties will be evaluated at   0.000000,   0.000000,   0.000000 [a0]

Properties computed using the SCF density matrix


 Multipole Moments:

 ------------------------------------------------------------------------------------
     Multipole            Electronic (a.u.)      Nuclear  (a.u.)        Total (a.u.)
 ------------------------------------------------------------------------------------

 L = 1.  Multiply by 2.5417464519 to convert [e a0] to [Debye]
 Dipole X            :         -1.1746003            0.2944567           -0.8801436
 Dipole Y            :          0.0893126           -0.0245700            0.0647427
 Dipole Z            :         -0.1350242            0.0220435           -0.1129807
 Magnitude           :                                                    0.8897241

 ------------------------------------------------------------------------------------

*** tstop() called on DESKTOP-26BCFJT at Thu Nov  3 12:47:03 2022
Module time:
	user time   =       4.93 seconds =       0.08 minutes
	system time =       0.31 seconds =       0.01 minutes
	total time  =          3 seconds =       0.05 minutes
Total time:
	user time   =       4.93 seconds =       0.08 minutes
	system time =       0.31 seconds =       0.01 minutes
	total time  =          3 seconds =       0.05 minutes


Properties will be evaluated at   0.000000,   0.000000,   0.000000 [a0]
OEProp: No title given, name of density matrix used for the following properties is 'SCF density'


  Wiberg Bond Indices using Orthogonal Lowdin Orbitals:

  Irrep: 1 Size: 8 x 8

                 1                   2                   3                   4                   5

    1     0.00000000000000     1.21600656007933     0.03206151870996     0.03198764187646     0.03194484740409
    2     1.21600656007933     0.00000000000000     0.85777897058605     0.85714269000734     0.85752877809955
    3     0.03206151870996     0.85777897058605     0.00000000000000     0.00829696759390     0.00828897651199
    4     0.03198764187646     0.85714269000734     0.00829696759390     0.00000000000000     0.00834673900913
    5     0.03194484740409     0.85752877809955     0.00828897651199     0.00834673900913     0.00000000000000
    6     0.90803707369517     0.04300909674464     0.00665652710095     0.00108439718182     0.00718215123320
    7     0.90804577537543     0.04299766279064     0.00108314789180     0.00728984406067     0.00669325332116
    8     0.90850409907237     0.04278709843204     0.00735141708992     0.00663058337574     0.00105095715939

                 6                   7                   8

    1     0.90803707369517     0.90804577537543     0.90850409907237
    2     0.04300909674464     0.04299766279064     0.04278709843204
    3     0.00665652710095     0.00108314789180     0.00735141708992
    4     0.00108439718182     0.00728984406067     0.00663058337574
    5     0.00718215123320     0.00669325332116     0.00105095715939
    6     0.00000000000000     0.01064442242236     0.01063608749892
    7     0.01064442242236     0.00000000000000     0.01065647094558
    8     0.01063608749892     0.01065647094558     0.00000000000000



  Atomic Valences: 

 #  #
 Irrep: 1
      1:    4.036587516212820
      2:    3.917250856739598
      3:    0.921517525484575
      4:    0.920778863105066
      5:    0.921035702738510
      6:    0.987249755877062
      7:    0.987410576807634
      8:    0.987616713573962


    Psi4 stopped on: Thursday, 03 November 2022 12:47PM
    Psi4 wall time for execution: 0:00:02.84

*** Psi4 exiting successfully. Buy a developer a beer!
