8
 energy: -7.662456110371 gnorm: 0.000316105937 xtb: 6.5.1 (b24c23e)
C            0.77102712797718       -0.06796019614925        0.08858808551030
N           -0.70892029974980        0.06332029695049       -0.08079847974204
H           -1.18609984757656        0.05395340753587        0.82931813882216
H           -0.94885733107153        0.94336916080375       -0.55413419066829
H           -1.08541139901271       -0.71034401418664       -0.64275827942901
H            1.13708177570492       -0.95628267098466       -0.41976400229948
H            1.28189187094044        0.79742073667673       -0.32574831652854
H            1.03028710278806       -0.14581772064628        1.14132205433489
