8
 energy: -7.663654689695 gnorm: 0.018007591898 xtb: 6.5.1 (b24c23e)
C            0.79923681000000       -0.03920796000000        0.10182762000000
N           -0.70020953000000        0.03258316000000       -0.09073226000000
H           -0.95976961000000        0.05779929000000       -1.08754376000000
H           -1.18008327000000       -0.77977219000000        0.32391846000000
H           -1.10448304000000        0.87328840000000        0.34715281000000
H            1.05386530000000        0.45025709000000        1.04316118000000
H            1.09850355000000       -1.08814128000000        0.13033333000000
H            1.28393380000000        0.47085448000000       -0.73209338000000
8
 energy: -7.664332949604 gnorm: 0.007930591683 xtb: 6.5.1 (b24c23e)
C            0.78117678536464       -0.03812801909810        0.09607884561249
N           -0.70468338754955        0.03424380617434       -0.09398545528175
H           -0.95564969922112        0.04819343239355       -1.09204059653660
H           -1.17045740358658       -0.77760591549156        0.33477089379562
H           -1.09549649638419        0.87855563273665        0.34638004713351
H            1.05169302310277        0.43541973637815        1.03600839361737
H            1.09846665426686       -1.07693128114185        0.12763891419127
H            1.28594453400718        0.47391359804883       -0.71882704253191
8
 energy: -7.664457582164 gnorm: 0.001064589796 xtb: 6.5.1 (b24c23e)
C            0.76972394639675       -0.03750902169959        0.09189316796051
N           -0.70536689227206        0.03595014194038       -0.09699501739938
H           -0.95114689901587        0.03910574147112       -1.09540758631475
H           -1.16176796489019       -0.77407677826932        0.34388633318879
H           -1.08745530353341        0.88197801635751        0.34558759289472
H            1.04720159289419        0.42590955757926        1.03549893329123
H            1.09547781297909       -1.07358621947387        0.12435038878162
H            1.28432771744150        0.47988955209451       -0.71278981240272
8
 energy: -7.664462466447 gnorm: 0.000763022172 xtb: 6.5.1 (b24c23e)
C            0.76967766876704       -0.03744189624620        0.09088461986709
N           -0.70571039657873        0.03660217600220       -0.09803627144029
H           -0.95239466825726        0.03553349351082       -1.09592620527605
H           -1.16248131227778       -0.77121342008554        0.34630292472781
H           -1.08813377104698        0.88221490545092        0.34466538129780
H            1.04740826612892        0.42345009068338        1.03689202703968
H            1.09648802930780       -1.07410377389069        0.12278022585087
H            1.28614019395698        0.48261941457512       -0.71153870206691
