Generated by Psi4
        SP                        DF-MP2                      6-311G**
Number of atoms                            I                8
Charge                                     I                1
Multiplicity                               I                1
Number of electrons                        I               18
Number of alpha electrons                  I                9
Number of beta electrons                   I                9
Number of basis functions                  I               72
Number of independent functions            I               72
Atomic numbers                             I   N=           8
           6           7           1           1           1           1
           1           1
Nuclear charges                            R   N=           8
  6.00000000e+00  7.00000000e+00  1.00000000e+00  1.00000000e+00  1.00000000e+00
  1.00000000e+00  1.00000000e+00  1.00000000e+00
Current cartesian coordinates              R   N=          24
  1.50272977e+00 -1.15390147e-01  1.86043941e-01 -1.31374734e+00  1.00877905e-01
 -1.62646995e-01 -2.12087183e+00 -1.62081620e+00 -5.64762807e-01 -2.18377675e+00
  7.84495904e-01  1.43519814e+00 -1.76551725e+00  1.30243756e+00 -1.62194771e+00
  1.86523115e+00 -1.40327281e+00  1.74637767e+00  2.31689270e+00 -8.43978046e-01
 -1.55492225e+00  2.24896174e+00  1.75343135e+00  6.04737930e-01
Integer atomic weights                     I   N=           8
          12          14           1           1           1           1
           1           1
Real atomic weights                        R   N=           8
  1.20000000e+01  1.40030740e+01  1.00782503e+00  1.00782503e+00  1.00782503e+00
  1.00782503e+00  1.00782503e+00  1.00782503e+00
Number of primitive shells                 I               70
Number of contracted shells                I               40
Pure/Cartesian d shells                    I                0
Pure/Cartesian f shells                    I                0
Highest angular momentum                   I                2
Largest degree of contraction              I                6
Shell types                                I   N=          40
           0           0           1           0           1           0
           1          -2           0           0           1           0
           1           0           1          -2           0           0
           0           1           0           0           0           1
           0           0           0           1           0           0
           0           1           0           0           0           1
           0           0           0           1
Number of primitives per shell             I   N=          40
           6           3           3           1           1           1
           1           1           6           3           3           1
           1           1           1           1           3           1
           1           1           3           1           1           1
           3           1           1           1           3           1
           1           1           3           1           1           1
           3           1           1           1
Shell to atom map                          I   N=          40
           1           1           1           1           1           1
           1           1           2           2           2           2
           2           2           2           2           3           3
           3           3           4           4           4           4
           5           5           5           5           6           6
           6           6           7           7           7           7
           8           8           8           8
Primitive exponents                        R   N=          70
  4.56324000e+03  6.82024000e+02  1.54973000e+02  4.44553000e+01  1.30290000e+01
  1.82773000e+00  2.09642000e+01  4.80331000e+00  1.45933000e+00  2.09642000e+01
  4.80331000e+00  1.45933000e+00  4.83456000e-01  4.83456000e-01  1.45585000e-01
  1.45585000e-01  6.26000000e-01  6.29348000e+03  9.49044000e+02  2.18776000e+02
  6.36916000e+01  1.88282000e+01  2.72023000e+00  3.06331000e+01  7.02614000e+00
  2.11205000e+00  3.06331000e+01  7.02614000e+00  2.11205000e+00  6.84009000e-01
  6.84009000e-01  2.00878000e-01  2.00878000e-01  9.13000000e-01  3.38650000e+01
  5.09479000e+00  1.15879000e+00  3.25840000e-01  1.02741000e-01  7.50000000e-01
  3.38650000e+01  5.09479000e+00  1.15879000e+00  3.25840000e-01  1.02741000e-01
  7.50000000e-01  3.38650000e+01  5.09479000e+00  1.15879000e+00  3.25840000e-01
  1.02741000e-01  7.50000000e-01  3.38650000e+01  5.09479000e+00  1.15879000e+00
  3.25840000e-01  1.02741000e-01  7.50000000e-01  3.38650000e+01  5.09479000e+00
  1.15879000e+00  3.25840000e-01  1.02741000e-01  7.50000000e-01  3.38650000e+01
  5.09479000e+00  1.15879000e+00  3.25840000e-01  1.02741000e-01  7.50000000e-01
Contraction coefficients                   R   N=          70
  1.96665025e-03  1.52306019e-02  7.61269097e-02  2.60801033e-01  6.16462078e-01
  2.21006028e-01  1.14660081e-01  9.19999648e-01 -3.03068213e-03  4.02486927e-02
  2.37593957e-01  8.15853851e-01  1.00000000e+00  1.00000000e+00  1.00000000e+00
  1.00000000e+00  1.00000000e+00  1.96978815e-03  1.49612859e-02  7.35005308e-02
  2.48936766e-01  6.02459433e-01  2.56201759e-01  1.11906080e-01  9.21666655e-01
 -2.56919183e-03  3.83119186e-02  2.37403116e-01  8.17592398e-01  1.00000000e+00
  1.00000000e+00  1.00000000e+00  1.00000000e+00  1.00000000e+00  2.54938145e-02
  1.90373109e-01  8.52161486e-01  1.00000000e+00  1.00000000e+00  1.00000000e+00
  2.54938145e-02  1.90373109e-01  8.52161486e-01  1.00000000e+00  1.00000000e+00
  1.00000000e+00  2.54938145e-02  1.90373109e-01  8.52161486e-01  1.00000000e+00
  1.00000000e+00  1.00000000e+00  2.54938145e-02  1.90373109e-01  8.52161486e-01
  1.00000000e+00  1.00000000e+00  1.00000000e+00  2.54938145e-02  1.90373109e-01
  8.52161486e-01  1.00000000e+00  1.00000000e+00  1.00000000e+00  2.54938145e-02
  1.90373109e-01  8.52161486e-01  1.00000000e+00  1.00000000e+00  1.00000000e+00
Coordinates of each shell                  R   N=         120
  1.50272977e+00 -1.15390147e-01  1.86043941e-01  1.50272977e+00 -1.15390147e-01
  1.86043941e-01  1.50272977e+00 -1.15390147e-01  1.86043941e-01  1.50272977e+00
 -1.15390147e-01  1.86043941e-01  1.50272977e+00 -1.15390147e-01  1.86043941e-01
  1.50272977e+00 -1.15390147e-01  1.86043941e-01  1.50272977e+00 -1.15390147e-01
  1.86043941e-01  1.50272977e+00 -1.15390147e-01  1.86043941e-01 -1.31374734e+00
  1.00877905e-01 -1.62646995e-01 -1.31374734e+00  1.00877905e-01 -1.62646995e-01
 -1.31374734e+00  1.00877905e-01 -1.62646995e-01 -1.31374734e+00  1.00877905e-01
 -1.62646995e-01 -1.31374734e+00  1.00877905e-01 -1.62646995e-01 -1.31374734e+00
  1.00877905e-01 -1.62646995e-01 -1.31374734e+00  1.00877905e-01 -1.62646995e-01
 -1.31374734e+00  1.00877905e-01 -1.62646995e-01 -2.12087183e+00 -1.62081620e+00
 -5.64762807e-01 -2.12087183e+00 -1.62081620e+00 -5.64762807e-01 -2.12087183e+00
 -1.62081620e+00 -5.64762807e-01 -2.12087183e+00 -1.62081620e+00 -5.64762807e-01
 -2.18377675e+00  7.84495904e-01  1.43519814e+00 -2.18377675e+00  7.84495904e-01
  1.43519814e+00 -2.18377675e+00  7.84495904e-01  1.43519814e+00 -2.18377675e+00
  7.84495904e-01  1.43519814e+00 -1.76551725e+00  1.30243756e+00 -1.62194771e+00
 -1.76551725e+00  1.30243756e+00 -1.62194771e+00 -1.76551725e+00  1.30243756e+00
 -1.62194771e+00 -1.76551725e+00  1.30243756e+00 -1.62194771e+00  1.86523115e+00
 -1.40327281e+00  1.74637767e+00  1.86523115e+00 -1.40327281e+00  1.74637767e+00
  1.86523115e+00 -1.40327281e+00  1.74637767e+00  1.86523115e+00 -1.40327281e+00
  1.74637767e+00  2.31689270e+00 -8.43978046e-01 -1.55492225e+00  2.31689270e+00
 -8.43978046e-01 -1.55492225e+00  2.31689270e+00 -8.43978046e-01 -1.55492225e+00
  2.31689270e+00 -8.43978046e-01 -1.55492225e+00  2.24896174e+00  1.75343135e+00
  6.04737930e-01  2.24896174e+00  1.75343135e+00  6.04737930e-01  2.24896174e+00
  1.75343135e+00  6.04737930e-01  2.24896174e+00  1.75343135e+00  6.04737930e-01
Total Energy                               R     -9.594975862679031e+01
Alpha Orbital Energies                     R   N=          72
 -1.59135929e+01 -1.14926752e+01 -1.52571491e+00 -1.17636126e+00 -9.84592246e-01
 -9.84591437e-01 -8.66602974e-01 -7.81944025e-01 -7.81943902e-01 -8.34504716e-02
 -1.07074348e-02 -1.07070368e-02 -5.02557610e-03  5.42191864e-02  5.42194120e-02
  1.15599328e-01  2.27691398e-01  2.27691697e-01  2.57065510e-01  2.57065615e-01
  2.84005292e-01  4.50798711e-01  5.48378654e-01  5.75147610e-01  5.75148285e-01
  6.35506721e-01  6.35507340e-01  6.55446981e-01  7.17626437e-01  9.65634889e-01
  9.65635679e-01  1.10131946e+00  1.28571242e+00  1.28571281e+00  1.47422067e+00
  1.48901633e+00  1.49129228e+00  1.49129301e+00  1.58632059e+00  1.65461020e+00
  1.65461142e+00  1.75217674e+00  1.75217791e+00  1.79993631e+00  1.95842596e+00
  1.95842652e+00  2.05944817e+00  2.20971855e+00  2.20972041e+00  2.22490587e+00
  2.40708306e+00  2.40708355e+00  2.42880181e+00  2.57994430e+00  2.57994592e+00
  2.62634585e+00  2.62634677e+00  2.69436603e+00  2.77028515e+00  2.82396410e+00
  2.82396515e+00  3.01784713e+00  3.12887418e+00  3.12887618e+00  3.51904468e+00
  3.96132766e+00  3.96132828e+00  4.86625054e+00  4.86625598e+00  4.98129717e+00
  2.47950373e+01  3.66675351e+01
Alpha MO coefficients                      R   N=        5184
  6.28865026e-06 -1.91019562e-05 -4.94119587e-05  3.79412795e-06 -6.11733062e-06
  8.59305388e-05 -2.40866652e-04  1.84952864e-05 -2.98205854e-05  7.39312815e-04
 -2.78264247e-04  2.13680442e-05 -3.44509323e-05 -4.71590646e-05  2.07385467e-05
 -1.59249688e-06  8.32621257e-05 -1.28626655e-05  5.57642735e-01  4.68204079e-01
 -2.13110903e-04  1.63659399e-05 -2.63846572e-05  5.26204368e-03  1.10348363e-04
 -8.47734248e-06  1.36622540e-05 -1.54706049e-03 -2.81062767e-04  2.15800149e-05
 -3.47960040e-05  1.31566381e-05 -5.78629679e-06  4.45927741e-07 -2.32320879e-05
  3.59080744e-06  2.21161116e-04  3.01323975e-04  3.97205940e-05  4.85984262e-05
  6.58033130e-05  1.77972092e-05  2.21160143e-04  3.01328426e-04  3.97189471e-05
  5.10517823e-05 -2.79664449e-05 -6.01717367e-05  2.21159809e-04  3.01330988e-04
  3.97181061e-05  3.47458909e-05 -4.81595764e-05  5.90137618e-05  4.66074445e-06
 -7.80545947e-05 -2.18745386e-05  2.23418703e-06  3.30759215e-06 -3.90783840e-06
  4.66090804e-06 -7.80555601e-05 -2.18748938e-05  9.87152838e-07  1.76317447e-06
  5.20755592e-06  4.66094077e-06 -7.80552984e-05 -2.18750323e-05  1.17436980e-06
 -5.40864624e-06 -7.55506847e-07  5.63402282e-01  4.66553678e-01 -1.42510725e-03
  1.09428166e-04 -1.76433334e-04  4.32217648e-03  1.07566356e-03 -8.25871633e-05
  1.33163059e-04 -1.53363580e-03 -6.16907322e-05  4.73502869e-06 -7.63636738e-06
  2.24347598e-04 -9.86622682e-05  7.57973949e-06 -3.96099282e-04  6.11939154e-05
 -7.51596126e-05 -1.28490170e-04  4.27073973e-05 -3.27941501e-06  5.28737742e-06
  2.05402619e-04  6.23648097e-04 -4.78877644e-05  7.72099820e-05  6.69642100e-04
  2.84066351e-04 -2.18121860e-05  3.51679912e-05 -1.39079066e-04  6.11609883e-05
 -4.69659999e-06  2.45551338e-04 -3.79341636e-05  1.11349627e-05 -3.32471673e-05
 -1.04360527e-05 -7.76150394e-06  4.35930350e-05  6.32376996e-06  1.11345607e-05
 -3.32471032e-05 -1.04362185e-05 -6.24517731e-06 -1.43891953e-05 -4.18868360e-05
  1.11343381e-05 -3.32475411e-05 -1.04372296e-05 -1.63277809e-05 -2.68742425e-05
  3.18075126e-05  3.28947644e-04  2.52697506e-05  2.89822258e-04 -4.73839239e-05
 -3.85202987e-05  4.48374763e-05  3.28949000e-04  2.52581617e-05  2.89828652e-04
 -3.22710996e-05 -1.98108147e-05 -6.56218705e-05  3.28949376e-04  2.52569646e-05
  2.89829840e-04 -3.45440309e-05  6.71027727e-05  6.64326493e-06  3.38603115e-02
  5.55485491e-02  2.96199729e-02 -2.27448465e-03  3.66712006e-03 -1.39280306e-01
  6.69594155e-02 -5.14156116e-03  8.28980765e-03 -2.09047044e-02 -3.04991657e-03
  2.34279368e-04 -3.77647805e-04  1.00354234e-02 -4.41317642e-03  3.38887613e-04
 -1.77180558e-02  2.73717988e-03  1.07233784e-01  1.77863254e-01  1.49173793e-03
 -1.14371738e-04  1.84679373e-04 -4.84135086e-01 -5.20651658e-03  3.99987724e-04
 -6.44585822e-04 -3.22430686e-01 -1.57407134e-02  1.20865631e-03 -1.94872077e-03
  8.98055467e-04 -3.94911187e-04  3.02898154e-05 -1.58549277e-03  2.44890533e-04
 -7.48294958e-02 -7.70642516e-02  6.16111016e-03 -9.45599768e-03 -2.15476849e-02
 -4.94433423e-03 -7.48290824e-02 -7.70639901e-02  6.16105378e-03 -1.02414932e-02
  8.48889104e-03  2.00303228e-02 -7.48289317e-02 -7.70638719e-02  6.16101607e-03
 -5.01845344e-03  1.49566902e-02 -1.81459410e-02 -1.57291834e-02 -2.76157687e-02
  2.39565455e-03  2.05642030e-03 -4.82556657e-03  5.86836548e-03 -1.57293060e-02
 -2.76160113e-02  2.39565588e-03  3.72957436e-03 -2.75378324e-03 -6.36086766e-03
 -1.57293498e-02 -2.76160880e-02  2.39564315e-03  3.47793399e-03  6.86806598e-03
  1.63936730e-03  9.55048678e-02  1.58399978e-01 -1.06316415e-02  8.15843748e-04
 -1.31584086e-03 -4.09069170e-01 -1.00079945e-03  7.62052984e-05 -1.23436961e-04
 -2.53305498e-01 -5.86057197e-03  4.49779165e-04 -7.25416927e-04 -7.93021885e-04
  3.48780460e-04 -2.67912845e-05  1.40014067e-03 -2.16311266e-04 -2.51558468e-02
 -4.19629386e-02 -1.00057934e-01  7.68266494e-03 -1.23874541e-02  1.16891810e-01
 -1.67061510e-01  1.28274064e-02 -2.06826897e-02  8.60839489e-02 -9.03445478e-02
  6.93688117e-03 -1.11848844e-02  7.10798677e-03 -3.12579381e-03  2.40075599e-04
 -1.25496113e-02  1.93876311e-03  4.55440512e-02  6.00652687e-02  1.00075262e-03
  4.22421165e-04  1.16227584e-02  2.02693168e-03  4.55435084e-02  6.00647515e-02
  1.00076443e-03  8.33421998e-04 -4.09445872e-03 -1.10415128e-02  4.55431833e-02
  6.00644544e-02  1.00077853e-03 -1.89964848e-03 -7.47883062e-03  8.93486498e-03
 -7.84217595e-02 -1.05043151e-01  4.16221151e-03  3.09253224e-03 -1.21583317e-02
  1.47200441e-02 -7.84225405e-02 -1.05043910e-01  4.16224917e-03  7.36561710e-03
 -6.86711501e-03 -1.65125065e-02 -7.84227260e-02 -1.05044084e-01  4.16226039e-03
  6.72295333e-03  1.77062993e-02  3.91945571e-03  2.44110675e-07  4.10095753e-07
  1.96235163e-03  5.67422641e-02  1.93404532e-02 -1.08565851e-06  3.29825888e-03
  9.53685568e-02  3.25061080e-02 -1.13499475e-06  1.41227583e-03  4.08338742e-02
  1.39180067e-02 -6.85906875e-03 -2.27354512e-03  4.43660431e-04 -4.70611164e-03
 -9.03651247e-03 -8.73742043e-08 -1.48490355e-07  6.87542107e-03  1.98772337e-01
  6.77512018e-02  3.71332604e-07  1.10830000e-02  3.20417491e-01  1.09213736e-01
  1.02056663e-06  7.63055490e-03  2.20605456e-01  7.51930273e-02  1.47382774e-02
 -6.54227402e-03 -4.59875703e-03  7.93193491e-03 -1.26697190e-02 -1.47985080e-01
 -1.93235057e-01 -1.75183446e-02 -1.43472597e-02 -2.03327856e-02 -3.59363371e-03
  9.39789434e-02  1.22715374e-01  1.11252372e-02  1.04512233e-02  3.00538581e-03
 -1.46853196e-02  5.40063783e-02  7.05202782e-02  6.39332429e-03  3.39799294e-03
  2.92798592e-03  1.33709365e-02 -1.45230175e-02 -1.86622555e-02 -2.73548213e-03
  2.40404059e-04  1.26225263e-03  2.94500059e-03 -2.52724989e-02 -3.24755109e-02
 -4.76036625e-03  1.35212731e-03  1.30634652e-03 -2.96963881e-03  3.97947942e-02
  5.11366672e-02  7.49583046e-03 -1.63319559e-03 -3.74518766e-03 -3.76377906e-04
 -1.70071152e-07 -2.87234465e-07 -8.42118115e-03 -1.88981159e-02  5.62989347e-02
  7.57988129e-07 -1.41537788e-02 -3.17626974e-02  9.46234410e-02  7.67381243e-07
 -6.06019830e-03 -1.35998485e-02  4.05151020e-02 -3.24536928e-03 -9.57298964e-03
 -6.06010002e-03  1.05236316e-03  4.02627122e-03  3.09008822e-08  5.21626594e-08
 -2.94996126e-02 -6.62010847e-02  1.97218200e-01 -1.15947140e-07 -4.75528348e-02
 -1.06715004e-01  3.17912330e-01 -3.71702405e-07 -3.27398675e-02 -7.34727704e-02
  2.18880972e-01  6.28786590e-04 -1.04751807e-02  1.95026070e-02  3.53528730e-03
  1.27491578e-03  2.30779756e-02  3.01346275e-02  2.73195438e-03  6.81068657e-04
  1.24354121e-03  1.19362767e-02  1.16619436e-01  1.52279055e-01  1.38054979e-02
  1.08869144e-02 -1.33991271e-02 -1.20286729e-02 -1.39697770e-01 -1.82414332e-01
 -1.65375915e-02 -9.43095051e-03  1.69512948e-02 -1.41944300e-02  3.75669716e-02
  4.82740951e-02  7.07608438e-03 -7.92162444e-04  3.24485858e-03 -2.20504213e-03
 -3.13604941e-02 -4.02985044e-02 -5.90704556e-03  1.12515648e-03 -2.92546978e-03
 -2.04071550e-03 -6.20618918e-03 -7.97501701e-03 -1.16905901e-03 -1.58408302e-04
  7.25136883e-05  3.07828455e-03  1.98123874e-02  3.29383346e-02 -1.45887947e-01
  1.12008545e-02 -1.80604046e-02 -8.44856745e-02 -2.47303651e-01  1.89874299e-02
 -3.06154590e-02 -1.65002358e-01 -7.46780530e-02  5.73300759e-03 -9.24443402e-03
 -2.17565865e-02  9.56779956e-03 -7.34878767e-04  3.84125035e-02 -5.93423682e-03
 -1.59934999e-02 -2.72675636e-02  1.95214645e-01 -1.49898058e-02  2.41678187e-02
  8.12966338e-02  3.18542260e-01 -2.44597304e-02  3.94359701e-02  1.38777772e-01
  2.60820650e-01 -2.00276632e-02  3.22900697e-02 -6.49033946e-03  2.85427824e-03
 -2.19264792e-04  1.14590607e-02 -1.77037063e-03 -4.26664139e-02 -6.44764288e-02
 -1.23492420e-02  7.30921118e-03 -1.04016052e-02 -7.62287227e-04 -4.26664650e-02
 -6.44765867e-02 -1.23493139e-02  6.96212703e-03  2.86830829e-03  1.02713370e-02
 -4.26655504e-02 -6.44752103e-02 -1.23490074e-02  9.26966748e-03  5.72560395e-03
 -6.59452775e-03 -6.08706434e-02 -8.62029937e-02 -1.53191618e-02 -3.75739415e-03
 -5.42917105e-03  6.41143231e-03 -6.08725372e-02 -8.62054980e-02 -1.53195018e-02
 -1.70779642e-03 -2.89141891e-03 -8.56889454e-03 -6.08729131e-02 -8.62060148e-02
 -1.53195951e-02 -2.01602146e-03  8.89511332e-03  1.23118519e-03 -3.05141271e-07
 -5.22841023e-07 -2.72990282e-02 -1.26346295e-01  1.42148183e-01  1.41503505e-06
 -4.37028066e-02 -2.02267650e-01  2.27564924e-01  2.62131515e-06 -2.98567156e-02
 -1.38181692e-01  1.55464085e-01  7.38330033e-03  8.34793404e-03 -3.01199826e-02
  4.37669183e-04 -7.04572707e-03  1.70480113e-07  2.90405177e-07  1.02758506e-02
  4.75634064e-02 -5.35123315e-02 -8.94870480e-07  1.59541604e-02  7.38470607e-02
 -8.30834411e-02 -1.08654244e-06  9.62558733e-03  4.45571587e-02 -5.01306765e-02
  4.15709749e-03  1.20297793e-02 -1.00875545e-02 -2.48072510e-03 -1.06541244e-02
 -3.29672546e-02 -6.12897478e-02 -1.82737204e-02 -2.08522577e-03 -4.43187177e-03
 -7.25590902e-03 -2.97331793e-02 -5.52769283e-02 -1.64809908e-02 -2.07900020e-03
  7.85665052e-03  2.41039843e-03  6.27013604e-02  1.16568033e-01  3.47552698e-02
  3.36166600e-03 -7.13789524e-03  9.02297822e-03  1.57165924e-01  2.45428345e-01
  5.45309779e-02 -9.25718062e-03  1.08485327e-02 -1.38057403e-02 -7.45280552e-02
 -1.16381723e-01 -2.58583358e-02  5.15196477e-03 -1.13206957e-02 -3.43992243e-03
 -8.26363907e-02 -1.29043643e-01 -2.86717924e-02  5.39010518e-03  6.41838881e-03
  1.05557106e-02  3.47093663e-08  5.95281247e-08 -4.67790107e-03  1.44008159e-01
  1.27100959e-01 -1.70864983e-07 -7.48885616e-03  2.30542325e-01  2.03475652e-01
 -2.54166127e-07 -5.11607982e-03  1.57497651e-01  1.39006855e-01 -2.19635213e-02
  1.32070898e-02 -5.32329541e-03 -1.35844038e-02  1.45453364e-02  1.59796934e-09
  4.05865725e-09  1.76104152e-03 -5.42118946e-02 -4.78473077e-02 -3.34870878e-09
  2.73422784e-03 -8.41694850e-02 -7.42878258e-02 -2.83739430e-07  1.64988237e-03
 -5.07852685e-02 -4.48229980e-02 -4.07976558e-03  1.24955394e-02 -8.85880073e-04
 -3.25949906e-03  1.41148168e-02  5.33668475e-02  9.92145058e-02  2.95811183e-02
  5.19234767e-03  9.42431022e-03 -1.53521630e-03 -5.52342557e-02 -1.02686247e-01
 -3.06163256e-02 -5.57361281e-03  5.14465933e-04  9.56998799e-03  1.86724103e-03
  3.47152305e-03  1.03505729e-03  2.43836754e-04 -5.70661705e-03 -4.29944861e-03
  4.68127779e-03  7.31013822e-03  1.62422340e-03 -4.77425935e-04  8.03545056e-03
  6.00132189e-03 -1.38450080e-01 -2.16201711e-01 -4.80372970e-02  1.19734037e-02
 -1.26450126e-03 -1.35387081e-02  1.33768728e-01  2.08891380e-01  4.64130411e-02
 -1.12758239e-02 -1.35482397e-02  1.55573987e-03  1.16222626e-02  1.88478256e-02
 -4.64338404e-02  3.56548221e-03 -5.74883505e-03 -1.00590936e-02 -6.02321301e-02
  4.62488895e-03 -7.45701344e-03 -7.39948889e-01 -1.25342503e-01  9.62334040e-03
 -1.55179421e-02  3.75904229e-03 -1.65298500e-03  1.26891510e-04 -6.63675274e-03
  1.02528762e-03  4.60247029e-02  7.77893121e-02  4.66084797e-02 -3.57971403e-03
  5.77044976e-03 -1.96606396e-01  4.95315691e-02 -3.80449026e-03  6.13239863e-03
 -1.01999647e+00  2.96620634e-01 -2.27792435e-02  3.67230990e-02  9.93186975e-04
 -4.36757225e-04  3.34721405e-05 -1.75339204e-03  2.70798306e-04  2.87764818e-02
  1.39535644e-02  6.23861980e-01 -6.20460588e-03 -8.16098801e-03 -2.23147340e-03
  2.87769292e-02  1.39541479e-02  6.23866369e-01 -6.50928565e-03  3.48666756e-03
  7.45337143e-03  2.87770435e-02  1.39539149e-02  6.23868424e-01 -4.48384294e-03
  5.99490450e-03 -7.35105245e-03 -2.19177617e-03  3.90633497e-02  2.05396609e-01
 -7.33475933e-03 -6.49192926e-05 -1.52587859e-04 -2.19190298e-03  3.90639076e-02
  2.05396741e-01 -7.10964507e-03  2.13977929e-04 -1.79829636e-03 -2.19179419e-03
  3.90644099e-02  2.05398381e-01 -7.14347164e-03  1.50864502e-03 -7.21787061e-04
  1.77738911e-07  2.87990935e-07 -7.10830185e-03 -1.83857032e-02  4.60141276e-02
 -3.29718326e-07 -5.02923886e-03 -1.30097864e-02  3.25591858e-02 -7.82987576e-06
 -4.72186169e-02 -1.22128843e-01  3.05649773e-01 -2.79507749e-03 -1.48030090e-02
  5.94360656e-03  3.05348948e-03  5.41026457e-03 -1.59401854e-07 -2.65809302e-07
 -1.82262868e-02 -4.71401612e-02  1.17981538e-01  5.73414685e-07 -2.28708115e-02
 -5.91528442e-02  1.48046610e-01  4.55615096e-06 -8.97393203e-02 -2.32100055e-01
  5.80898101e-01  1.31367393e-03  1.04962118e-02 -1.03285821e-02 -2.55748811e-03
 -3.16895419e-03 -9.37493331e-03 -8.42505582e-03 -3.29272620e-01  1.92929358e-03
  2.69467032e-03  1.32436630e-03 -3.33238611e-02 -2.99513521e-02 -1.17041537e+00
  7.46126319e-03 -4.57588718e-03 -8.94888995e-03  4.26987915e-02  3.83777628e-02
  1.49968134e+00 -6.47591843e-03  9.41916818e-03 -1.12411249e-02 -1.00202847e-02
  3.26168386e-02 -5.71143591e-01 -3.93799525e-03  6.07871236e-03 -9.31839595e-03
  7.82003294e-03 -2.54561764e-02  4.45742322e-01  5.26406614e-03 -6.99454290e-04
 -7.91278995e-03  2.20015704e-03 -7.16104785e-03  1.25411438e-01  1.82894339e-03
  2.78031504e-03 -3.19037749e-03 -1.53829006e-07 -2.56579023e-07  1.24363414e-03
  4.64044341e-02  1.87335341e-02  5.04548430e-07  8.79456469e-04  3.28351236e-02
  1.32555008e-02  4.63458232e-06  8.26223229e-03  3.08242480e-01  1.24439130e-01
  2.11163147e-03 -6.82824718e-03 -1.96934538e-03  4.37509601e-04 -1.56751796e-02
  2.08694822e-07  3.47145261e-07  3.18960950e-03  1.18981743e-01  4.80326710e-02
 -7.22338621e-07  4.00229781e-03  1.49301425e-01  6.02726839e-02 -6.53866446e-06
  1.57047200e-02  5.85823420e-01  2.36494987e-01 -6.68888794e-03  5.80085483e-03
  2.23987942e-03 -3.35955624e-03  1.18516583e-02  4.38911780e-02  3.94474412e-02
  1.54158788e+00 -9.41832777e-03 -1.30940308e-02 -3.37800101e-03 -3.00645340e-02
 -2.70213553e-02 -1.05594658e+00  6.82380937e-03 -3.36924297e-03 -8.34823345e-03
 -1.38267622e-02 -1.24280627e-02 -4.85631395e-01  2.08422019e-03 -2.56269500e-03
  4.04542532e-03  3.24464010e-03 -1.05625070e-02  1.84943244e-01  1.35777748e-03
 -5.12654221e-03  3.91528651e-04  7.05536857e-03 -2.29663302e-02  4.02154736e-01
  4.15132197e-03 -5.54907247e-03 -5.36052212e-03 -1.03000475e-02  3.35296964e-02
 -5.87105281e-01 -6.06139160e-03 -9.91924566e-03 -3.34515959e-03  5.25917536e-02
  8.80521044e-02 -4.73556760e-03  3.64231721e-04 -5.86708684e-04 -1.67429981e-01
  6.52616235e-02 -5.01037342e-03  8.07898806e-03 -1.91152736e+00 -1.71058779e-01
  1.31385481e-02 -2.11800043e-02  1.65225377e-04 -7.25642175e-05  5.46040115e-06
 -2.91639166e-04  4.49142937e-05 -2.09424042e-02 -3.52073555e-02  1.82562870e-02
 -1.40128725e-03  2.25997457e-03  8.66325282e-02  2.33999785e-02 -1.79600099e-03
  2.89670188e-03  4.58458474e-01  1.88429272e-01 -1.44665023e-02  2.33273003e-02
  5.14663487e-03 -2.26335708e-03  1.73833984e-04 -9.08670196e-03  1.40388187e-03
 -1.04255404e-02  6.45861914e-02 -2.94118282e-01  9.25786543e-03  4.07489829e-03
  1.95700077e-03 -1.04257714e-02  6.45859058e-02 -2.94124082e-01  9.42669816e-03
 -2.37885333e-03 -3.40916694e-03 -1.04260746e-02  6.45856270e-02 -2.94131680e-01
  8.30455958e-03 -3.76856494e-03  4.79360189e-03  1.62124867e-02 -4.12520696e-02
  9.51649415e-01  6.86606954e-03 -5.47470220e-03  6.80037029e-03  1.62119547e-02
 -4.12527759e-02  9.51642910e-01  8.63951346e-03 -3.27865045e-03 -6.16200532e-03
  1.62117789e-02 -4.12531322e-02  9.51639442e-01  8.37276990e-03  6.91990907e-03
  2.31775759e-03  5.28790790e-08  5.72451228e-08 -1.86687119e-02 -7.25523460e-02
  1.05797095e-01  8.79906599e-07 -1.66070115e-02 -6.45421972e-02  9.41165143e-02
 -1.46073845e-05 -1.81362333e-01 -7.04829038e-01  1.02779485e+00 -5.07508087e-03
 -1.38548122e-02  2.65300838e-02  2.34403510e-03  8.15628904e-03 -5.72882631e-08
 -8.94664746e-08  8.38132596e-03  3.25695424e-02 -4.74938990e-02 -7.11288592e-09
  9.12304166e-03  3.54516832e-02 -5.16967075e-02  2.84920068e-06  7.85829530e-02
  3.05371896e-01 -4.45298585e-01  2.17538388e-03  1.19428500e-02  3.29360405e-03
 -2.99340346e-03 -8.50426563e-03  4.41025995e-03  6.96087740e-02  2.73542396e-01
  5.20905969e-03  9.75335996e-04 -4.28353904e-03  6.14167863e-03  9.69327238e-02
  3.80939482e-01  6.85232437e-03  3.50131142e-03 -1.39320264e-03 -1.05519716e-02
 -1.66541603e-01 -6.54478616e-01 -1.06064594e-02  1.17811718e-03 -2.56864276e-03
 -2.27181867e-02 -1.29166416e-02 -2.05865075e+00  2.55540758e-03  1.58463703e-02
 -1.83381567e-02  1.32222517e-02  7.51802475e-03  1.19821757e+00  1.38807754e-03
 -8.27858186e-03 -1.19654870e-02  9.49474902e-03  5.39749460e-03  8.60444137e-01
  4.03554775e-04  9.32503637e-03  5.67042598e-03 -3.53161150e-09  4.65782894e-09
 -8.49527308e-04  1.06978986e-01  7.32130271e-02 -3.77499535e-07 -7.55782987e-04
  9.51673497e-02  6.51294397e-02  4.76025391e-06 -8.25371669e-03  1.03927646e+00
  7.11246767e-01  1.82021525e-02 -1.40333956e-02  8.92087306e-04  1.09545532e-02
 -1.85618923e-02  7.80725876e-09  6.76116353e-09  3.81306452e-04 -4.80244774e-02
 -3.28659745e-02  1.19152118e-07  4.15085551e-04 -5.22742881e-02 -3.57743268e-02
 -3.81001991e-07  3.57417955e-03 -4.50274119e-01 -3.08152113e-01  6.22418976e-03
  7.51457630e-03  1.29532550e-03  3.44481298e-03  1.14342473e-02 -9.63776354e-03
 -1.52116143e-01 -5.97801408e-01 -9.60163588e-03  7.51418405e-05 -3.66287133e-03
  8.63832927e-03  1.36341191e-01  5.35791519e-01  8.55125071e-03 -4.01825440e-03
  1.27445646e-03  9.99629379e-04  1.57751982e-02  6.20098461e-02  1.11670890e-03
 -4.39444434e-03 -3.31788281e-03  2.15221827e-03  1.22453148e-03  1.95011517e-01
 -3.29655231e-04  1.84745511e-03  4.52130217e-03  1.85982893e-02  1.05726415e-02
  1.68534561e+00  2.80239773e-03 -4.65245055e-03 -1.93588731e-02 -2.07502333e-02
 -1.17973816e-02 -1.88036162e+00 -2.27487738e-03 -2.21036148e-02 -2.20931219e-03
  1.61390357e-02  2.74867398e-02  1.50008555e-01 -1.15183509e-02  1.85714084e-02
 -2.53748016e-02  2.07296019e-01 -1.59173697e-02  2.56639980e-02 -8.55956611e-01
  1.81279291e+00 -1.39196185e-01  2.24428862e-01 -1.43804977e-02  6.32388015e-03
 -4.85566584e-04  2.53894764e-02 -3.92217565e-03 -2.25711314e-02 -3.82299591e-02
  1.59415294e-01 -1.22412673e-02  1.97364623e-02  7.74636108e-02  2.07854997e-01
 -1.59610368e-02  2.57335905e-02  9.79696161e-01  1.16968551e+00 -8.98182435e-02
  1.44813275e-01  1.16707331e-02 -5.13226687e-03  3.94034455e-04 -2.06052578e-02
  3.18317115e-03  1.07576041e-02  2.20551836e-02  3.95364939e-01  5.37105230e-04
 -8.88472361e-03 -1.43169505e-03  1.07578566e-02  2.20567964e-02  3.95360963e-01
  2.25222176e-04  3.04073639e-03  8.48395587e-03  1.07583283e-02  2.20597739e-02
  3.95362851e-01  2.29881793e-03  5.60866427e-03 -6.67317463e-03 -1.72469659e-02
 -9.58079433e-02 -2.75183958e-01  1.03876020e-02  4.17259792e-03 -4.69162900e-03
 -1.72464823e-02 -9.58032674e-02 -2.75200038e-01  8.60598615e-03  1.96654748e-03
  8.33052872e-03 -1.72465061e-02 -9.58030285e-02 -2.75199200e-01  8.87394706e-03
 -8.27920111e-03 -1.88490806e-04 -4.56721592e-08 -8.27601136e-08 -6.14233067e-04
  5.16009324e-03  8.15997959e-03  6.08933330e-07 -4.26976040e-03  3.58731121e-02
  5.67297882e-02 -3.59072589e-06 -5.48958028e-02  4.61301924e-01  7.29510630e-01
 -1.00669407e-02 -6.33149609e-03 -5.34081520e-03 -4.71885021e-03 -3.18448102e-03
 -3.08715865e-08 -5.45189663e-08 -2.80308882e-03  2.35538830e-02  3.72493041e-02
  1.98275046e-07 -6.26873037e-03  5.26774726e-02  8.33062158e-02 -1.06087818e-06
 -3.50292164e-02  2.94360864e-01  4.65508446e-01 -8.85347644e-03  2.23960953e-02
 -8.36549888e-03 -8.30673342e-03  1.58337689e-02  6.16586490e-02  6.52093632e-01
 -2.70973341e-01 -1.45266208e-02  1.48195223e-02  1.56732623e-02 -9.03531060e-02
 -9.55560438e-01  3.97081309e-01  1.80100715e-02  1.07455430e-02  2.36353045e-02
  2.86941726e-02  3.03463129e-01 -1.26105040e-01 -7.73140255e-03  1.01315534e-02
  1.71426024e-02 -2.25324891e-02 -2.94761926e-01  4.31466964e-02 -3.29494641e-03
  1.77090097e-03  1.96758818e-02  7.09510569e-02  9.28151661e-01 -1.35852671e-01
 -5.81210946e-04  1.82664406e-02  4.13261543e-02 -4.84186855e-02 -6.33388029e-01
  9.27086547e-02 -1.90309490e-03  2.85255661e-02  1.57964511e-02 -1.35571085e-07
 -1.48736341e-07 -1.25230588e-03 -8.14997674e-03  5.06060682e-03 -8.75492409e-07
 -8.70477071e-03 -5.66602788e-02  3.51736588e-02 -6.06483203e-07 -1.11953027e-01
 -7.28618419e-01  4.52267150e-01  3.55643164e-03 -5.73347322e-03 -8.60053747e-03
  4.50036054e-03  7.91306772e-03  1.96847851e-07  3.42516503e-07 -5.71673396e-03
 -3.72035094e-02  2.30955597e-02 -8.73553802e-07 -1.27850336e-02 -8.32039601e-02
  5.16516458e-02 -4.58649843e-06 -7.14435071e-02 -4.64935564e-01  2.88657252e-01
  9.94694819e-03  1.06065269e-02 -1.91478199e-02 -4.30515289e-04 -1.97834289e-02