Generated by Psi4
        SP                        DF-MP2                   AUG-CC-PVTZ
Number of atoms                            I                8
Charge                                     I                1
Multiplicity                               I                1
Number of electrons                        I               18
Number of alpha electrons                  I                9
Number of beta electrons                   I                9
Number of basis functions                  I              230
Number of independent functions            I              230
Atomic numbers                             I   N=           8
           6           7           1           1           1           1
           1           1
Nuclear charges                            R   N=           8
  6.00000000e+00  7.00000000e+00  1.00000000e+00  1.00000000e+00  1.00000000e+00
  1.00000000e+00  1.00000000e+00  1.00000000e+00
Current cartesian coordinates              R   N=          24
  1.50272977e+00 -1.15390147e-01  1.86043941e-01 -1.31374734e+00  1.00877905e-01
 -1.62646995e-01 -2.12087183e+00 -1.62081620e+00 -5.64762807e-01 -2.18377675e+00
  7.84495904e-01  1.43519814e+00 -1.76551725e+00  1.30243756e+00 -1.62194771e+00
  1.86523115e+00 -1.40327281e+00  1.74637767e+00  2.31689270e+00 -8.43978046e-01
 -1.55492225e+00  2.24896174e+00  1.75343135e+00  6.04737930e-01
Integer atomic weights                     I   N=           8
          12          14           1           1           1           1
           1           1
Real atomic weights                        R   N=           8
  1.20000000e+01  1.40030740e+01  1.00782503e+00  1.00782503e+00  1.00782503e+00
  1.00782503e+00  1.00782503e+00  1.00782503e+00
Number of primitive shells                 I              126
Number of contracted shells                I               82
Pure/Cartesian d shells                    I                0
Pure/Cartesian f shells                    I                0
Highest angular momentum                   I                3
Largest degree of contraction              I                8
Shell types                                I   N=          82
           0           0           0           0           1           1
           1          -2          -2          -3           0           1
          -2          -3           0           0           0           0
           1           1           1          -2          -2          -3
           0           1          -2          -3           0           0
           0           1           1          -2           0           1
          -2           0           0           0           1           1
          -2           0           1          -2           0           0
           0           1           1          -2           0           1
          -2           0           0           0           1           1
          -2           0           1          -2           0           0
           0           1           1          -2           0           1
          -2           0           0           0           1           1
          -2           0           1          -2
Number of primitives per shell             I   N=          82
           8           8           1           1           3           1
           1           1           1           1           1           1
           1           1           8           8           1           1
           3           1           1           1           1           1
           1           1           1           1           3           1
           1           1           1           1           1           1
           1           3           1           1           1           1
           1           1           1           1           3           1
           1           1           1           1           1           1
           1           3           1           1           1           1
           1           1           1           1           3           1
           1           1           1           1           1           1
           1           3           1           1           1           1
           1           1           1           1
Shell to atom map                          I   N=          82
           1           1           1           1           1           1
           1           1           1           1           1           1
           1           1           2           2           2           2
           2           2           2           2           2           2
           2           2           2           2           3           3
           3           3           3           3           3           3
           3           4           4           4           4           4
           4           4           4           4           5           5
           5           5           5           5           5           5
           5           6           6           6           6           6
           6           6           6           6           7           7
           7           7           7           7           7           7
           7           8           8           8           8           8
           8           8           8           8
Primitive exponents                        R   N=         126
  8.23600000e+03  1.23500000e+03  2.80800000e+02  7.92700000e+01  2.55900000e+01
  8.99700000e+00  3.31900000e+00  3.64300000e-01  8.23600000e+03  1.23500000e+03
  2.80800000e+02  7.92700000e+01  2.55900000e+01  8.99700000e+00  3.31900000e+00
  3.64300000e-01  9.05900000e-01  1.28500000e-01  1.87100000e+01  4.13300000e+00
  1.20000000e+00  3.82700000e-01  1.20900000e-01  1.09700000e+00  3.18000000e-01
  7.61000000e-01  4.40200000e-02  3.56900000e-02  1.00000000e-01  2.68000000e-01
  1.14200000e+04  1.71200000e+03  3.89300000e+02  1.10000000e+02  3.55700000e+01
  1.25400000e+01  4.64400000e+00  5.11800000e-01  1.14200000e+04  1.71200000e+03
  3.89300000e+02  1.10000000e+02  3.55700000e+01  1.25400000e+01  4.64400000e+00
  5.11800000e-01  1.29300000e+00  1.78700000e-01  2.66300000e+01  5.94800000e+00
  1.74200000e+00  5.55000000e-01  1.72500000e-01  1.65400000e+00  4.69000000e-01
  1.09300000e+00  5.76000000e-02  4.91000000e-02  1.51000000e-01  3.64000000e-01
  3.38700000e+01  5.09500000e+00  1.15900000e+00  3.25800000e-01  1.02700000e-01
  1.40700000e+00  3.88000000e-01  1.05700000e+00  2.52600000e-02  1.02000000e-01
  2.47000000e-01  3.38700000e+01  5.09500000e+00  1.15900000e+00  3.25800000e-01
  1.02700000e-01  1.40700000e+00  3.88000000e-01  1.05700000e+00  2.52600000e-02
  1.02000000e-01  2.47000000e-01  3.38700000e+01  5.09500000e+00  1.15900000e+00
  3.25800000e-01  1.02700000e-01  1.40700000e+00  3.88000000e-01  1.05700000e+00
  2.52600000e-02  1.02000000e-01  2.47000000e-01  3.38700000e+01  5.09500000e+00
  1.15900000e+00  3.25800000e-01  1.02700000e-01  1.40700000e+00  3.88000000e-01
  1.05700000e+00  2.52600000e-02  1.02000000e-01  2.47000000e-01  3.38700000e+01
  5.09500000e+00  1.15900000e+00  3.25800000e-01  1.02700000e-01  1.40700000e+00
  3.88000000e-01  1.05700000e+00  2.52600000e-02  1.02000000e-01  2.47000000e-01
  3.38700000e+01  5.09500000e+00  1.15900000e+00  3.25800000e-01  1.02700000e-01
  1.40700000e+00  3.88000000e-01  1.05700000e+00  2.52600000e-02  1.02000000e-01
  2.47000000e-01
Contraction coefficients                   R   N=         126
  5.42430189e-04  4.19642790e-03  2.15409141e-02  8.36149496e-02  2.39871619e-01
  4.43751820e-01  3.53579696e-01 -9.17636608e-03 -1.96392234e-04 -1.52595027e-03
 -7.89044903e-03 -3.15148705e-02 -9.69100083e-02 -2.20541526e-01 -2.96069113e-01
  1.04050343e+00  1.00000000e+00  1.00000000e+00  3.94263872e-02  2.44088985e-01
  8.15492009e-01  1.00000000e+00  1.00000000e+00  1.00000000e+00  1.00000000e+00
  1.00000000e+00  1.00000000e+00  1.00000000e+00  1.00000000e+00  1.00000000e+00
  5.34980914e-04  4.13766310e-03  2.12509149e-02  8.25762988e-02  2.38413273e-01
  4.43431666e-01  3.55431909e-01 -8.70290176e-03 -1.98776985e-04 -1.54700349e-03
 -7.99256330e-03 -3.20255651e-02 -9.91102048e-02 -2.28292775e-01 -2.98182763e-01
  1.03700052e+00  1.00000000e+00  1.00000000e+00  3.98072123e-02  2.49002660e-01
  8.10479727e-01  1.00000000e+00  1.00000000e+00  1.00000000e+00  1.00000000e+00
  1.00000000e+00  1.00000000e+00  1.00000000e+00  1.00000000e+00  1.00000000e+00
  2.54948632e-02  1.90362766e-01  8.52162022e-01  1.00000000e+00  1.00000000e+00
  1.00000000e+00  1.00000000e+00  1.00000000e+00  1.00000000e+00  1.00000000e+00
  1.00000000e+00  2.54948632e-02  1.90362766e-01  8.52162022e-01  1.00000000e+00
  1.00000000e+00  1.00000000e+00  1.00000000e+00  1.00000000e+00  1.00000000e+00
  1.00000000e+00  1.00000000e+00  2.54948632e-02  1.90362766e-01  8.52162022e-01
  1.00000000e+00  1.00000000e+00  1.00000000e+00  1.00000000e+00  1.00000000e+00
  1.00000000e+00  1.00000000e+00  1.00000000e+00  2.54948632e-02  1.90362766e-01
  8.52162022e-01  1.00000000e+00  1.00000000e+00  1.00000000e+00  1.00000000e+00
  1.00000000e+00  1.00000000e+00  1.00000000e+00  1.00000000e+00  2.54948632e-02
  1.90362766e-01  8.52162022e-01  1.00000000e+00  1.00000000e+00  1.00000000e+00
  1.00000000e+00  1.00000000e+00  1.00000000e+00  1.00000000e+00  1.00000000e+00
  2.54948632e-02  1.90362766e-01  8.52162022e-01  1.00000000e+00  1.00000000e+00
  1.00000000e+00  1.00000000e+00  1.00000000e+00  1.00000000e+00  1.00000000e+00
  1.00000000e+00
Coordinates of each shell                  R   N=         246
  1.50272977e+00 -1.15390147e-01  1.86043941e-01  1.50272977e+00 -1.15390147e-01
  1.86043941e-01  1.50272977e+00 -1.15390147e-01  1.86043941e-01  1.50272977e+00
 -1.15390147e-01  1.86043941e-01  1.50272977e+00 -1.15390147e-01  1.86043941e-01
  1.50272977e+00 -1.15390147e-01  1.86043941e-01  1.50272977e+00 -1.15390147e-01
  1.86043941e-01  1.50272977e+00 -1.15390147e-01  1.86043941e-01  1.50272977e+00
 -1.15390147e-01  1.86043941e-01  1.50272977e+00 -1.15390147e-01  1.86043941e-01
  1.50272977e+00 -1.15390147e-01  1.86043941e-01  1.50272977e+00 -1.15390147e-01
  1.86043941e-01  1.50272977e+00 -1.15390147e-01  1.86043941e-01  1.50272977e+00
 -1.15390147e-01  1.86043941e-01 -1.31374734e+00  1.00877905e-01 -1.62646995e-01
 -1.31374734e+00  1.00877905e-01 -1.62646995e-01 -1.31374734e+00  1.00877905e-01
 -1.62646995e-01 -1.31374734e+00  1.00877905e-01 -1.62646995e-01 -1.31374734e+00
  1.00877905e-01 -1.62646995e-01 -1.31374734e+00  1.00877905e-01 -1.62646995e-01
 -1.31374734e+00  1.00877905e-01 -1.62646995e-01 -1.31374734e+00  1.00877905e-01
 -1.62646995e-01 -1.31374734e+00  1.00877905e-01 -1.62646995e-01 -1.31374734e+00
  1.00877905e-01 -1.62646995e-01 -1.31374734e+00  1.00877905e-01 -1.62646995e-01
 -1.31374734e+00  1.00877905e-01 -1.62646995e-01 -1.31374734e+00  1.00877905e-01
 -1.62646995e-01 -1.31374734e+00  1.00877905e-01 -1.62646995e-01 -2.12087183e+00
 -1.62081620e+00 -5.64762807e-01 -2.12087183e+00 -1.62081620e+00 -5.64762807e-01
 -2.12087183e+00 -1.62081620e+00 -5.64762807e-01 -2.12087183e+00 -1.62081620e+00
 -5.64762807e-01 -2.12087183e+00 -1.62081620e+00 -5.64762807e-01 -2.12087183e+00
 -1.62081620e+00 -5.64762807e-01 -2.12087183e+00 -1.62081620e+00 -5.64762807e-01
 -2.12087183e+00 -1.62081620e+00 -5.64762807e-01 -2.12087183e+00 -1.62081620e+00
 -5.64762807e-01 -2.18377675e+00  7.84495904e-01  1.43519814e+00 -2.18377675e+00
  7.84495904e-01  1.43519814e+00 -2.18377675e+00  7.84495904e-01  1.43519814e+00
 -2.18377675e+00  7.84495904e-01  1.43519814e+00 -2.18377675e+00  7.84495904e-01
  1.43519814e+00 -2.18377675e+00  7.84495904e-01  1.43519814e+00 -2.18377675e+00
  7.84495904e-01  1.43519814e+00 -2.18377675e+00  7.84495904e-01  1.43519814e+00
 -2.18377675e+00  7.84495904e-01  1.43519814e+00 -1.76551725e+00  1.30243756e+00
 -1.62194771e+00 -1.76551725e+00  1.30243756e+00 -1.62194771e+00 -1.76551725e+00
  1.30243756e+00 -1.62194771e+00 -1.76551725e+00  1.30243756e+00 -1.62194771e+00
 -1.76551725e+00  1.30243756e+00 -1.62194771e+00 -1.76551725e+00  1.30243756e+00
 -1.62194771e+00 -1.76551725e+00  1.30243756e+00 -1.62194771e+00 -1.76551725e+00
  1.30243756e+00 -1.62194771e+00 -1.76551725e+00  1.30243756e+00 -1.62194771e+00
  1.86523115e+00 -1.40327281e+00  1.74637767e+00  1.86523115e+00 -1.40327281e+00
  1.74637767e+00  1.86523115e+00 -1.40327281e+00  1.74637767e+00  1.86523115e+00
 -1.40327281e+00  1.74637767e+00  1.86523115e+00 -1.40327281e+00  1.74637767e+00
  1.86523115e+00 -1.40327281e+00  1.74637767e+00  1.86523115e+00 -1.40327281e+00
  1.74637767e+00  1.86523115e+00 -1.40327281e+00  1.74637767e+00  1.86523115e+00
 -1.40327281e+00  1.74637767e+00  2.31689270e+00 -8.43978046e-01 -1.55492225e+00
  2.31689270e+00 -8.43978046e-01 -1.55492225e+00  2.31689270e+00 -8.43978046e-01
 -1.55492225e+00  2.31689270e+00 -8.43978046e-01 -1.55492225e+00  2.31689270e+00
 -8.43978046e-01 -1.55492225e+00  2.31689270e+00 -8.43978046e-01 -1.55492225e+00
  2.31689270e+00 -8.43978046e-01 -1.55492225e+00  2.31689270e+00 -8.43978046e-01
 -1.55492225e+00  2.31689270e+00 -8.43978046e-01 -1.55492225e+00  2.24896174e+00
  1.75343135e+00  6.04737930e-01  2.24896174e+00  1.75343135e+00  6.04737930e-01
  2.24896174e+00  1.75343135e+00  6.04737930e-01  2.24896174e+00  1.75343135e+00
  6.04737930e-01  2.24896174e+00  1.75343135e+00  6.04737930e-01  2.24896174e+00
  1.75343135e+00  6.04737930e-01  2.24896174e+00  1.75343135e+00  6.04737930e-01
  2.24896174e+00  1.75343135e+00  6.04737930e-01  2.24896174e+00  1.75343135e+00
  6.04737930e-01
Total Energy                               R     -9.602055720455593e+01
Alpha Orbital Energies                     R   N=         230
 -1.59130326e+01 -1.14919158e+01 -1.52385368e+00 -1.17532129e+00 -9.82783991e-01
 -9.82783184e-01 -8.65375815e-01 -7.81474344e-01 -7.81474228e-01 -1.27980187e-01
 -8.65100426e-02 -8.65099824e-02 -8.43096790e-02 -4.76818320e-02 -4.76817933e-02
 -4.37098367e-02 -1.86742513e-02 -1.86742005e-02 -1.59550374e-02  5.58558396e-03
  5.58566522e-03  7.65728184e-03  3.89739829e-02  3.89742517e-02  4.31563804e-02
  7.39800900e-02  7.39801152e-02  9.20969013e-02  1.07803818e-01  1.07803922e-01
  1.55032959e-01  1.55194476e-01  1.58493483e-01  1.69552208e-01  1.69552278e-01
  2.05579880e-01  2.05579982e-01  2.06619059e-01  2.31590726e-01  2.31590977e-01
  2.36751518e-01  2.43376622e-01  2.46644569e-01  2.46645085e-01  2.52803545e-01
  2.70410292e-01  2.70410334e-01  2.98460176e-01  3.24729885e-01  3.24730638e-01
  3.30216189e-01  3.41454746e-01  3.41455223e-01  3.97894919e-01  3.97895243e-01
  4.08762973e-01  4.08763332e-01  4.20563212e-01  5.67660095e-01  5.83299442e-01
  5.83299879e-01  5.94555999e-01  6.20565017e-01  6.20565612e-01  6.36019877e-01
  6.52203823e-01  6.79710764e-01  6.79710907e-01  7.15630201e-01  7.26938066e-01
  7.29152286e-01  7.29152534e-01  7.35350673e-01  7.44003349e-01  7.44003675e-01
  7.84787678e-01  7.84788054e-01  8.07075867e-01  8.09833118e-01  8.80096248e-01
  8.80096416e-01  8.84531892e-01  8.84532212e-01  8.90226134e-01  9.51242960e-01
  9.51243826e-01  9.55929522e-01  9.77082117e-01  9.77082210e-01  1.01665229e+00
  1.01665273e+00  1.05081079e+00  1.05081210e+00  1.06602977e+00  1.08559227e+00
  1.08559240e+00  1.11502309e+00  1.13314964e+00  1.13797526e+00  1.13797534e+00
  1.27316667e+00  1.27316697e+00  1.28132067e+00  1.34996894e+00  1.34996932e+00
  1.36258756e+00  1.40157385e+00  1.40157410e+00  1.42489721e+00  1.42651948e+00
  1.45257291e+00  1.45257333e+00  1.49925091e+00  1.50987726e+00  1.57635035e+00
  1.58093966e+00  1.58094021e+00  1.62953044e+00  1.62953064e+00  1.70781887e+00
  1.77780504e+00  1.77780584e+00  1.77972570e+00  1.78516071e+00  1.78516143e+00
  1.82306706e+00  1.85608114e+00  1.85608193e+00  1.90743536e+00  1.99466768e+00
  1.99466875e+00  2.01113510e+00  2.01113691e+00  2.10325847e+00  2.18391911e+00
  2.18392055e+00  2.21933008e+00  2.26819803e+00  2.26819846e+00  2.33233363e+00
  2.36536265e+00  2.41354357e+00  2.41354418e+00  2.73521817e+00  2.95495252e+00
  3.13226502e+00  3.13226876e+00  3.21050717e+00  3.35699882e+00  3.35699905e+00
  3.39358286e+00  3.40659648e+00  3.40659676e+00  3.51343509e+00  3.51343594e+00
  3.52076108e+00  3.61853020e+00  3.68517845e+00  3.68517976e+00  3.74429113e+00
  3.74429167e+00  3.83518469e+00  3.83518766e+00  3.84315225e+00  3.84580485e+00
  3.88346463e+00  3.89170389e+00  3.89170551e+00  3.98144586e+00  3.98144753e+00
  4.06545361e+00  4.07405843e+00  4.07406084e+00  4.15028776e+00  4.20025201e+00
  4.20025244e+00  4.28395362e+00  4.29760823e+00  4.31978022e+00  4.31978066e+00
  4.38092079e+00  4.42603600e+00  4.42603725e+00  4.46949146e+00  4.46949411e+00
  4.55828986e+00  4.55829100e+00  4.60552004e+00  4.61938273e+00  4.66732734e+00
  4.66732784e+00  4.68451646e+00  4.74403896e+00  4.74404132e+00  4.82945467e+00
  4.82945764e+00  4.85944871e+00  4.91037254e+00  4.97095743e+00  4.97095851e+00
  5.02442690e+00  5.18734308e+00  5.21305162e+00  5.21305341e+00  5.27553876e+00
  5.51772439e+00  5.51772721e+00  5.54537939e+00  5.54538103e+00  5.55776050e+00
  5.59141115e+00  5.77885828e+00  5.77886364e+00  5.83939906e+00  5.83940144e+00
  5.89454537e+00  6.09658158e+00  6.19364101e+00  6.19364772e+00  6.27480482e+00
  6.46206270e+00  6.46206671e+00  6.47747881e+00  6.60730213e+00  6.83153653e+00
  6.83153940e+00  7.50485140e+00  7.50485572e+00  1.72847536e+01  1.85828867e+01
Alpha MO coefficients                      R   N=       52900
 -4.25641336e-04 -8.73186500e-04 -1.12476755e-04  6.87087938e-03 -4.32605020e-05
  3.32157358e-06 -5.35548805e-06  3.00854332e-03 -2.31005113e-04  3.72459000e-04
  2.16574995e-03 -1.66294735e-04  2.68115732e-04  9.70564434e-05 -4.26819515e-05
  3.27768431e-06 -1.71357923e-04  2.64728614e-05  8.71393263e-04 -3.83202677e-04
  2.94293573e-05 -1.53849407e-03  2.37667993e-04 -2.21144812e-06  7.60706055e-06
 -1.04574816e-05 -6.59658148e-06  2.57425294e-06 -1.03537142e-05 -3.46230222e-07
  3.67500875e-04  1.47740262e-04 -1.13459337e-05  1.82914051e-05  2.55826011e-04
 -1.12507470e-04  8.63876275e-06 -4.51671242e-04  6.97837521e-05 -3.21121373e-04
 -3.21875405e-05 -6.58561171e-04 -2.18509815e-04  1.37883121e-04  3.37490287e-05
 -1.93324717e-04 -9.77538197e-01 -1.28524288e-03 -4.28269448e-02  1.13042905e-02
  1.45317108e-04 -1.11604169e-05  1.79915537e-05  5.66086076e-04 -4.34418963e-05
  7.00801168e-05 -2.39377467e-03  1.83834313e-04 -2.96363884e-04 -3.76390093e-05
  1.65529980e-05 -1.27401581e-06  6.64597505e-05 -1.02702317e-05 -3.79248978e-04
  1.66780231e-04 -1.28124342e-05  6.69597739e-04 -1.03447640e-04 -1.36900761e-04
  2.17746445e-04 -4.55889028e-04 -2.43698515e-04  1.06832810e-04 -2.98636299e-04
 -5.32976153e-05  9.38887760e-04 -3.11186887e-04  2.38910912e-05 -3.85266087e-05
  4.90369084e-04 -2.15642950e-04  1.65557886e-05 -8.65761434e-04  1.33748414e-04
  1.38329164e-04 -8.96240268e-04  9.72270433e-04  6.86043854e-04 -2.48311201e-04
  1.21620825e-03 -3.12259394e-05 -2.96921593e-04 -4.07766207e-03 -7.14970740e-04
  9.57762530e-05  2.24561073e-04  5.11488653e-05 -1.19195779e-05 -8.00491215e-04
 -1.37247567e-04 -1.71074833e-04  7.34343515e-05  1.22699982e-04 -1.57616305e-04
  2.96542977e-04 -3.21052252e-05  1.05451294e-04 -1.34275324e-04 -8.32267525e-06
 -1.99052010e-04  7.78138453e-05  4.26984661e-05  1.48317731e-04  4.66725892e-05
 -2.96921431e-04 -4.07769595e-03 -7.15016937e-04  1.03951568e-04 -8.81786464e-05
 -2.08883368e-04 -4.01985813e-05  2.80230984e-04  7.61356999e-04  1.58154470e-04
 -2.90143211e-04  1.83904868e-04  5.49597685e-05 -1.28271070e-04 -3.21052703e-05
  1.00994212e-04  3.58935219e-05  1.33173847e-04 -4.91373625e-05 -2.56677487e-05
  7.21871862e-05  2.41211084e-04 -7.21642584e-05 -2.96921052e-04 -4.07771015e-03
 -7.15028153e-04  4.95693698e-05 -1.55518460e-04  1.88597804e-04  1.47727169e-04
  5.12954669e-04 -6.12276543e-04  1.22310406e-04  1.68602285e-04 -3.02906515e-04
 -9.04851013e-05 -1.38429573e-04 -3.21054081e-05  1.30588399e-04  7.25397915e-05
 -8.31289972e-05 -8.07874268e-05  9.25212757e-05 -1.25987875e-04  1.91283650e-04
 -6.42270738e-05 -4.30070534e-05 -1.84563982e-03 -1.88187074e-03 -2.37227117e-06
 -2.00730100e-05  2.40664085e-05  1.11777390e-04 -2.78100798e-04  3.38005238e-04
 -3.02921737e-05  4.48202837e-05  2.51988564e-05  4.54484430e-05 -3.54626401e-05
 -4.45667498e-05  1.45420180e-04 -3.21104733e-04  3.90770060e-04  4.98030435e-06
 -2.72522447e-05  7.53164697e-05 -3.79433461e-05  1.90463234e-05 -4.30073220e-05
 -1.84565947e-03 -1.88192110e-03  4.88787880e-06 -1.10822437e-05 -2.90012884e-05
  2.08396038e-04 -1.58485185e-04 -3.68160270e-04 -6.03438602e-05 -1.91897707e-05
 -2.06684396e-05  4.62628966e-05 -1.75375022e-05 -4.45663787e-05  2.56519356e-04
 -1.83540913e-04 -4.21284840e-04 -1.94917637e-05  2.50063806e-05 -4.63297585e-05
 -6.58429889e-05  2.74932056e-05 -4.30073438e-05 -1.84565424e-03 -1.88191976e-03
  3.79570823e-06  3.06706185e-05  5.71593039e-06  1.93869776e-04  3.97123088e-04
  9.37865724e-05 -4.48201916e-06  1.61990718e-05 -7.74262315e-06  7.62242201e-05
  2.70560601e-05 -4.45642841e-05  2.39806983e-04  4.55383911e-04  1.09953546e-04
  7.72294699e-05 -2.53312828e-05 -2.68698757e-05 -6.94535113e-06 -2.94386382e-05
  9.79758899e-01  4.09675848e-03  4.23226319e-02 -2.33412902e-02 -1.63222536e-03
  1.25331804e-04 -2.02075348e-04  3.33773839e-03 -2.56262138e-04  4.13202826e-04
  8.74293878e-03 -6.71347934e-04  1.08243050e-03  1.18120973e-04 -5.19478638e-05
  3.98896328e-06 -2.08548755e-04  3.22197451e-05  3.75366259e-04 -1.65073676e-04
  1.26928396e-05 -6.62742253e-04  1.02393644e-04 -2.20975106e-04  3.39574578e-04
 -7.26889568e-04 -3.85623751e-04  1.69971618e-04 -4.65944606e-04 -8.75360386e-05
 -2.71339746e-03  1.07773187e-03 -8.27582477e-05  1.33430463e-04  7.38205959e-04
 -3.24618917e-04  2.49372235e-05 -1.30334816e-03  2.01331639e-04  7.11303764e-04
 -5.78318442e-04  1.95034746e-03  9.06517289e-04 -4.40275581e-04  8.03736793e-04
  3.46524031e-04 -2.75844689e-05  2.63966083e-04 -1.36784990e-04  2.08850699e-02
  1.97525402e-04 -1.51674573e-05  2.44544892e-05  2.64005296e-04 -2.02785744e-05
  3.26855545e-05  1.13669157e-02 -8.72816629e-04  1.40725852e-03 -6.92989573e-05
  3.04746744e-05 -2.33961107e-06  1.22349910e-04 -1.89015503e-05  4.20373166e-04
 -1.84863659e-04  1.41961640e-05 -7.42192810e-04  1.14660634e-04  5.73921310e-05
  3.79646161e-05  9.33312265e-05  1.81030513e-05 -1.79584980e-05 -4.95893294e-05
  3.86053798e-05  6.78607929e-04  7.83987738e-04 -6.02030653e-05  9.70609687e-05
 -9.54588929e-04  4.19786945e-04 -3.22387837e-05  1.68537829e-03 -2.60365973e-04
  3.19769307e-04  2.44440999e-04  4.95080268e-04  7.94568955e-05 -9.32187679e-05
 -3.20818799e-04  2.19228639e-04  2.38835545e-05 -2.52402181e-03  1.92450368e-03
 -1.23188370e-06 -3.87340042e-05 -6.73079086e-06 -1.62593532e-03 -5.47173309e-04
 -3.15144913e-04  8.27532825e-05 -6.44031755e-05 -2.07285151e-05 -1.44528929e-04
 -1.37731445e-04  2.85735134e-04  6.63330177e-05  3.06542331e-05  1.42736614e-05
  2.51692232e-04 -1.50194446e-04 -5.82857470e-05 -3.23282731e-04 -2.48855532e-04
  2.38833706e-05 -2.52401642e-03  1.92447987e-03 -2.60067825e-06  1.36274465e-05
  3.68059070e-05 -1.64962579e-03  3.59072063e-04  4.38357300e-04  9.55422599e-05
  1.16314552e-04 -1.32558063e-05 -1.48526956e-04  7.99400087e-05  2.85736249e-04
  6.75895466e-05 -1.75435714e-05 -2.58125395e-05  1.84824486e-04  2.01713006e-04
 -6.34502322e-05 -3.83948069e-04  1.71621199e-04  2.38827156e-05 -2.52401953e-03
  1.92443982e-03  6.50412005e-06  2.49019202e-05 -2.97447896e-05 -1.49204009e-03
  5.54196958e-04 -7.13460294e-04  4.60372915e-05 -1.50563665e-04  4.15584375e-05
 -1.03013240e-04  1.18978678e-04  2.85739166e-04  5.92003657e-05 -2.79264492e-05
  3.54416302e-05  1.23438342e-04 -2.97760875e-04  1.40639881e-04 -2.81391879e-04
  2.29962036e-04  1.12634381e-04  3.10971058e-03  9.20375663e-04  2.98115465e-05
 -1.71852686e-04  2.07625185e-04 -2.44942318e-04 -4.19216252e-04  4.96482221e-04
 -1.18796673e-04 -2.32303714e-05  2.22133626e-04  1.22021370e-04  2.08818480e-05
 -1.82809177e-04 -4.12661575e-04 -1.61748979e-04  1.81556134e-04 -2.72932259e-04
 -2.13924562e-04  3.73705436e-04  3.22389762e-04  1.86737860e-04  1.12629468e-04
  3.10966249e-03  9.20404960e-04  9.05921543e-05 -9.65885076e-05 -2.36630401e-04
 -8.79220538e-05 -2.24808706e-04 -6.51159544e-04 -1.92408185e-04  1.34140373e-04
 -1.43926247e-04  3.80491462e-05  4.62721620e-05 -1.82807531e-04 -3.43313957e-04
 -7.58792726e-05 -3.25246034e-04 -2.87384673e-04  4.73861175e-04 -2.28615013e-04
  1.26168360e-04  1.53014941e-04  1.12628734e-04  3.10963600e-03  9.20388909e-04
  8.14506043e-05  2.52943916e-04  5.39938703e-05 -1.11537131e-04  6.78179268e-04
  9.96375230e-05  9.86104438e-05 -1.74202488e-05 -8.53778882e-05  2.15270840e-04
 -1.25137962e-04 -1.82807907e-04 -3.53739761e-04  3.22859354e-04  6.29208882e-06
  9.21282778e-05 -5.40447757e-05 -1.60903310e-04  3.78057042e-04 -4.67447985e-04
  5.59467296e-03 -1.44680812e-01 -2.87646286e-02 -1.13347162e-02  3.92407069e-02
 -3.01323304e-03  4.85820798e-03  5.52598423e-02 -4.24327856e-03  6.84143373e-03
  1.86248601e-02 -1.42995488e-03  2.30569527e-03  3.54820804e-03 -1.56034415e-03
  1.19816055e-04 -6.26454195e-03  9.67765880e-04  8.06796933e-03 -3.54794151e-03
  2.72480679e-04 -1.42444538e-02  2.20053644e-03 -2.58148354e-04 -2.27100144e-03
  1.16929065e-03  1.28453242e-03 -3.55163365e-04  3.06320371e-03 -4.37856055e-04
  1.90670805e-02 -2.40985563e-03  1.85080043e-04 -2.98366530e-04  1.75913237e-03
 -7.73691439e-04  5.93998627e-05 -3.10578955e-03  4.80010016e-04 -8.42275031e-04
 -1.96365625e-04 -1.64271706e-03 -5.00327093e-04  3.38422704e-04  2.39897052e-04
 -5.21179568e-04  7.87465444e-03 -4.76078506e-01 -1.13678472e-01 -1.40095218e-01
  1.78576923e-03 -1.36904605e-04  2.21079612e-04 -1.87325589e-03  1.43969806e-04
 -2.31905774e-04 -6.14927621e-03  4.72039215e-04 -7.61269773e-04 -6.77908996e-05
  2.98194371e-05 -2.30918840e-06  1.19725211e-04 -1.85213859e-05  2.96344766e-03
 -1.30320046e-03  1.00082201e-04 -5.23216172e-03  8.08286774e-04 -3.36182491e-04
  2.82355211e-03 -2.85124866e-03 -2.08705808e-03  7.37425553e-04 -3.82853002e-03
  1.57078083e-04 -3.40032992e-02 -3.74724745e-03  2.87685774e-04 -4.63914813e-04
  4.42567604e-03 -1.94625067e-03  1.49526810e-04 -7.81388030e-03  1.20723761e-03
  1.27800595e-03 -5.87447893e-04  3.16237042e-03  1.33501601e-03 -6.97325907e-04
  8.33402100e-04  6.79381360e-04 -7.17437424e-02 -9.51601450e-02  7.46871178e-03
 -4.20630021e-03 -8.52026761e-03 -2.01898659e-03 -9.66430721e-03 -1.32792364e-02
 -3.57198391e-03  1.07717053e-03 -4.76205027e-04 -6.62005453e-04  5.61054932e-04
 -1.61403837e-03  3.17696395e-04  6.71343674e-04  4.19081764e-03  8.01856832e-04
 -1.34320952e-03  1.14095880e-04  8.10692541e-04 -2.04506028e-03  3.22665425e-04
 -7.17433386e-02 -9.51597000e-02  7.46900501e-03 -4.51813404e-03  3.40499112e-03
  7.89653917e-03 -1.01587764e-02  5.62876093e-03  1.21495824e-02 -6.80815043e-04
  1.54961303e-03 -9.86611405e-04 -5.79351017e-04  7.55808358e-04  3.17711471e-04
  8.20987593e-04 -1.53009420e-03 -3.95494624e-03  2.04829572e-03 -4.37140720e-04
  1.52472624e-03 -5.61520698e-05 -2.14642537e-04 -7.17431913e-02 -9.51595208e-02
  7.46926480e-03 -2.44445888e-03  5.97284666e-03 -7.26030516e-03 -6.87086304e-03
  9.70026746e-03 -1.18824279e-02 -5.10265675e-04 -1.02331037e-03  1.64475260e-03
  2.19448354e-04  8.27138172e-04  3.17715563e-04 -1.73781483e-04 -2.76201689e-03
  3.31635530e-03  8.90341110e-04 -3.78576641e-04 -2.28150472e-03 -7.15686166e-04
  3.27176719e-04 -1.46303276e-02 -2.19775089e-02 -5.09669821e-03  9.38553701e-04
 -1.04694378e-03  1.28867547e-03  2.41803605e-03 -7.98720928e-04  1.03668660e-03
  2.02804358e-06 -5.17171962e-04  3.28887432e-04 -1.52732497e-04  4.15154365e-04
 -3.73555487e-04 -1.66380688e-03  1.10866730e-03 -1.38573996e-03  7.38858025e-04
  2.52109836e-04 -1.73584616e-03 -6.22064533e-04 -2.04573162e-04 -1.46304261e-02
 -2.19776134e-02 -5.09717005e-03  1.28801086e-03 -6.14237409e-04 -1.26549716e-03
  2.63780771e-03 -5.26595547e-04 -5.69478611e-04  1.12312953e-04  5.42481045e-04
 -1.68825905e-04 -3.81393656e-04  3.00778921e-04 -3.73588028e-04 -2.01548749e-03
  6.73185896e-04  1.18417082e-03  1.31770913e-03 -9.51550723e-04  1.11528763e-03
  2.89700878e-05 -4.06222352e-04 -1.46304693e-02 -2.19776737e-02 -5.09745809e-03
  1.23546051e-03  1.39536828e-03  4.05419812e-04  2.60477365e-03  7.37084928e-04
  4.81211264e-04  3.12093607e-04 -2.12830611e-04 -1.45664971e-04 -2.18764609e-04
 -5.99634742e-04 -3.73609193e-04 -1.96266112e-03 -1.34855444e-03 -4.96957860e-04
 -9.54073964e-04  2.14621892e-04  6.57804052e-04 -1.35341595e-03  9.11482726e-04
  9.98932827e-03 -4.23780579e-01 -8.87437498e-02 -1.74067169e-01 -1.31682261e-02
  1.01050488e-03 -1.62979430e-03 -1.73712550e-02  1.33310576e-03 -2.15003398e-03
 -3.13139382e-02  2.40458050e-03 -3.87692317e-03 -1.62571309e-03  7.14962268e-04
 -5.49070428e-05  2.87028690e-03 -4.43439599e-04 -4.50691380e-03  1.98201838e-03
 -1.52066679e-04  7.95708869e-03 -1.22927902e-03  7.52721443e-04 -3.20938691e-03
  4.02918347e-03  2.64860869e-03 -1.00504228e-03  4.36299599e-03  3.99476986e-05
 -7.26280005e-04 -9.76112245e-04  7.49842410e-05 -1.20873054e-04 -3.12682501e-03
  1.37504500e-03 -1.05513635e-04  5.52048416e-03 -8.52901373e-04  1.50767437e-03
  1.60139524e-03  1.99483781e-03  8.26886932e-05 -3.46353382e-04 -2.11963542e-03
  1.09014353e-03 -1.34389265e-03  1.14099202e-01  2.93264665e-02  4.03048134e-02
 -1.22640514e-01  9.41660188e-03 -1.51832395e-02 -1.59795837e-01  1.22695902e-02
 -1.97831860e-02 -6.71355844e-02  5.15506456e-03 -8.31153544e-03  3.00542152e-03
 -1.32165962e-03  1.01510268e-04 -5.30626698e-03  8.19756182e-04  8.96177215e-03
 -3.94100325e-03  3.02634565e-04 -1.58224833e-02  2.44432112e-03  4.37350369e-04
  3.26158169e-04  6.83338702e-04  1.13987475e-04 -1.29199686e-04 -4.27739300e-04
  2.98811178e-04  1.09493813e-02  4.87946935e-03 -3.74624414e-04  6.04082177e-04