2022-11-03:12:44:33,642 INFO     [psi4.driver.task_planner:266] PLANNING Atomic:  keywords={'CUBEPROP_TASKS': ['ESP'], 'FREEZE_CORE': 'TRUE', 'MAXITER': 500, 'PROPERTIES_ORIGIN': ['COM'], 'function_kwargs': {}}
2022-11-03:12:44:33,646 INFO     [psi4.driver.driver:774] Compute properties(): method=mp2, basis=aug-cc-pvtz, molecule=default, nre=47.75142042847537
2022-11-03:12:44:48,966 INFO     [psi4.driver.driver:777] Return properties(): -96.02055720455593
R. A. Shaw, J. B. Schriber, Y. Xie, Z. L. Glick, D. A. Sirianni,
    J. S. O'Brien, J. M. Waldrop, A. Kumar, E. G. Hohenstein,
    B. P. Pritchard, B. R. Brooks, H. F. Schaefer III, A. Yu. Sokolov,
    K. Patkowski, A. E. DePrince III, U. Bozkaya, R. A. King,
    F. A. Evangelista, J. M. Turney, T. D. Crawford, C. D. Sherrill,
    J. Chem. Phys. 152(18) 184108 (2020). https://doi.org/10.1063/5.0006002

                            Additional Code Authors
    E. T. Seidl, C. L. Janssen, E. F. Valeev, M. L. Leininger,
    J. F. Gonthier, R. M. Richard, H. R. McAlexander, M. Saitow, X. Wang,
    P. Verma, M. H. Lechner, and A. Jiang

             Previous Authors, Complete List of Code Contributors,
                       and Citations for Specific Modules
    https://github.com/psi4/psi4/blob/master/codemeta.json
    https://github.com/psi4/psi4/graphs/contributors
    http://psicode.org/psi4manual/master/introduction.html#citing-psifour

    -----------------------------------------------------------------------


    Psi4 started on: Thursday, 03 November 2022 12:44PM

    Process ID: 7503
    Host:       DESKTOP-26BCFJT
    PSIDATADIR: /home/chase/psi4conda/share/psi4
    Memory:     500.0 MiB
    Threads:    1
    
  ==> Input File <==

--------------------------------------------------------------------------
molecule { 
1 1
C 0.795210347031 -0.061061835964 0.098450213896
N -0.695205151533 0.053382288213 -0.08606908288
H -1.122317037916 -0.857698994051 -0.298859606916
H -1.155604888103 0.415137354094 0.759474147268
H -0.934271493711 0.689220276298 -0.858297767647
H 0.987037818056 -0.742579989867 0.9241432667
H 1.226046814754 -0.446613948224 -0.822829416487
H 1.190099300796 0.927875911153 0.320013531124
}
memory 5GB
set_num_threads(6)
psi4_io.set_default_path("/home/chase/temp/Psi4-mamm")
set maxiter 500
set freeze_core True
set PROPERTIES_ORIGIN ["COM"]
set cubeprop_tasks ['esp']
set basis aug-cc-pVTZ 
E, wfn = properties('mp2',properties=['dipole','GRID_ESP','WIBERG_LOWDIN_INDICES','MULLIKEN_CHARGES'],return_wfn=True)
cubeprop(wfn)
fchk(wfn, "mamm-esp.fchk")
clean()
--------------------------------------------------------------------------

  Memory set to   4.657 GiB by Python driver.
  Threads set to 6 by Python driver.
    SCF Algorithm Type (re)set to DF.

*** tstart() called on DESKTOP-26BCFJT
*** at Thu Nov  3 12:44:33 2022

   => Loading Basis Set <=

    Name: AUG-CC-PVTZ
    Role: ORBITAL
    Keyword: BASIS
    atoms 1   entry C          line   239 file /home/chase/psi4conda/share/psi4/basis/aug-cc-pvtz.gbs 
    atoms 2   entry N          line   285 file /home/chase/psi4conda/share/psi4/basis/aug-cc-pvtz.gbs 
    atoms 3-8 entry H          line    40 file /home/chase/psi4conda/share/psi4/basis/aug-cc-pvtz.gbs 


         ---------------------------------------------------------
                                   SCF
               by Justin Turney, Rob Parrish, Andy Simmonett
                          and Daniel G. A. Smith
                              RHF Reference
                        6 Threads,   4768 MiB Core
         ---------------------------------------------------------

  ==> Geometry <==

    Molecular point group: c1
    Full point group: C1

    Geometry (in Angstrom), charge = 1, multiplicity = 1:

       Center              X                  Y                   Z               Mass       
    ------------   -----------------  -----------------  -----------------  -----------------
         C            0.795210347031    -0.061061835964     0.098450213896    12.000000000000
         N           -0.695205151533     0.053382288213    -0.086069082880    14.003074004430
         H           -1.122317037916    -0.857698994051    -0.298859606916     1.007825032230
         H           -1.155604888103     0.415137354094     0.759474147268     1.007825032230
         H           -0.934271493711     0.689220276298    -0.858297767647     1.007825032230
         H            0.987037818056    -0.742579989867     0.924143266700     1.007825032230
         H            1.226046814754    -0.446613948224    -0.822829416487     1.007825032230
         H            1.190099300796     0.927875911153     0.320013531124     1.007825032230

  Running in c1 symmetry.

  Rotational constants: A =      2.81694  B =      0.66985  C =      0.66985 [cm^-1]
  Rotational constants: A =  84449.68453  B =  20081.63589  C =  20081.61896 [MHz]
  Nuclear repulsion =   47.751420428475370

  Charge       = 1
  Multiplicity = 1
  Electrons    = 18
  Nalpha       = 9
  Nbeta        = 9

  ==> Algorithm <==

  SCF Algorithm Type is DF.
  DIIS enabled.
  MOM disabled.
  Fractional occupation disabled.
  Guess Type is SAD.
  Energy threshold   = 1.00e-10
  Density threshold  = 1.00e-10
  Integral threshold = 1.00e-12

  ==> Primary Basis <==

  Basis Set: AUG-CC-PVTZ
    Blend: AUG-CC-PVTZ
    Number of shells: 82
    Number of basis functions: 230
    Number of Cartesian functions: 260
    Spherical Harmonics?: true
    Max angular momentum: 3

   => Loading Basis Set <=

    Name: (AUG-CC-PVTZ AUX)
    Role: JKFIT
    Keyword: DF_BASIS_SCF
    atoms 1   entry C          line   162 file /home/chase/psi4conda/share/psi4/basis/aug-cc-pvtz-jkfit.gbs 
    atoms 2   entry N          line   224 file /home/chase/psi4conda/share/psi4/basis/aug-cc-pvtz-jkfit.gbs 
    atoms 3-8 entry H          line    70 file /home/chase/psi4conda/share/psi4/basis/aug-cc-pvtz-jkfit.gbs 

  ==> Integral Setup <==

  DFHelper Memory: AOs need 0.206 GiB; user supplied 3.492 GiB. Using in-core AOs.

  ==> MemDFJK: Density-Fitted J/K Matrices <==

    J tasked:                   Yes
    K tasked:                   Yes
    wK tasked:                   No
    OpenMP threads:               6
    Memory [MiB]:              3576
    Algorithm:                 Core
    Schwarz Cutoff:           1E-12
    Mask sparsity (%):       0.0000
    Fitting Condition:        1E-10

   => Auxiliary Basis Set <=

  Basis Set: (AUG-CC-PVTZ AUX)
    Blend: AUG-CC-PVTZ-JKFIT
    Number of shells: 144
    Number of basis functions: 484
    Number of Cartesian functions: 592
    Spherical Harmonics?: true
    Max angular momentum: 4

  Minimum eigenvalue in the overlap matrix is 3.2834071495E-05.
  Reciprocal condition number of the overlap matrix is 2.3454046479E-06.
    Using symmetric orthogonalization.

  ==> Pre-Iterations <==

  SCF Guess: Superposition of Atomic Densities via on-the-fly atomic UHF (no occupation information).

   -------------------------
    Irrep   Nso     Nmo    
   -------------------------
     A        230     230 
   -------------------------
    Total     230     230
   -------------------------

  ==> Iterations <==

                           Total Energy        Delta E     RMS |[F,P]|

   @DF-RHF iter SAD:   -95.41855770185903   -9.54186e+01   0.00000e+00 
   @DF-RHF iter   1:   -95.53975126875595   -1.21194e-01   1.49535e-03 DIIS/ADIIS
   @DF-RHF iter   2:   -95.60985907735393   -7.01078e-02   4.92728e-04 DIIS/ADIIS
   @DF-RHF iter   3:   -95.61686373132720   -7.00465e-03   1.54510e-04 DIIS/ADIIS
   @DF-RHF iter   4:   -95.61786597467965   -1.00224e-03   3.31001e-05 DIIS
   @DF-RHF iter   5:   -95.61790373577139   -3.77611e-05   1.08899e-05 DIIS
   @DF-RHF iter   6:   -95.61790779883565   -4.06306e-06   1.90330e-06 DIIS
   @DF-RHF iter   7:   -95.61790801509980   -2.16264e-07   4.48038e-07 DIIS
   @DF-RHF iter   8:   -95.61790802692965   -1.18299e-08   8.32074e-08 DIIS
   @DF-RHF iter   9:   -95.61790802740342   -4.73761e-10   1.30112e-08 DIIS
   @DF-RHF iter  10:   -95.61790802741301   -9.59233e-12   1.64079e-09 DIIS
   @DF-RHF iter  11:   -95.61790802741318   -1.70530e-13   2.38455e-10 DIIS
   @DF-RHF iter  12:   -95.61790802741314    4.26326e-14   3.60966e-11 DIIS
  Energy and wave function converged.


  ==> Post-Iterations <==

    Orbital Energies [Eh]
    ---------------------

    Doubly Occupied:                                                      

       1A    -15.913033     2A    -11.491916     3A     -1.523854  
       4A     -1.175321     5A     -0.982784     6A     -0.982783  
       7A     -0.865376     8A     -0.781474     9A     -0.781474  

    Virtual:                                                              

      10A     -0.127980    11A     -0.086510    12A     -0.086510  
      13A     -0.084310    14A     -0.047682    15A     -0.047682  
      16A     -0.043710    17A     -0.018674    18A     -0.018674  
      19A     -0.015955    20A      0.005586    21A      0.005586  
      22A      0.007657    23A      0.038974    24A      0.038974  
      25A      0.043156    26A      0.073980    27A      0.073980  
      28A      0.092097    29A      0.107804    30A      0.107804  
      31A      0.155033    32A      0.155194    33A      0.158493  
      34A      0.169552    35A      0.169552    36A      0.205580  
      37A      0.205580    38A      0.206619    39A      0.231591  
      40A      0.231591    41A      0.236752    42A      0.243377  
      43A      0.246645    44A      0.246645    45A      0.252804  
      46A      0.270410    47A      0.270410    48A      0.298460  
      49A      0.324730    50A      0.324731    51A      0.330216  
      52A      0.341455    53A      0.341455    54A      0.397895  
      55A      0.397895    56A      0.408763    57A      0.408763  
      58A      0.420563    59A      0.567660    60A      0.583299  
      61A      0.583300    62A      0.594556    63A      0.620565  
      64A      0.620566    65A      0.636020    66A      0.652204  
      67A      0.679711    68A      0.679711    69A      0.715630  
      70A      0.726938    71A      0.729152    72A      0.729153  
      73A      0.735351    74A      0.744003    75A      0.744004  
      76A      0.784788    77A      0.784788    78A      0.807076  
      79A      0.809833    80A      0.880096    81A      0.880096  
      82A      0.884532    83A      0.884532    84A      0.890226  
      85A      0.951243    86A      0.951244    87A      0.955930  
      88A      0.977082    89A      0.977082    90A      1.016652  
      91A      1.016653    92A      1.050811    93A      1.050812  
      94A      1.066030    95A      1.085592    96A      1.085592  
      97A      1.115023    98A      1.133150    99A      1.137975  
     100A      1.137975   101A      1.273167   102A      1.273167  
     103A      1.281321   104A      1.349969   105A      1.349969  
     106A      1.362588   107A      1.401574   108A      1.401574  
     109A      1.424897   110A      1.426519   111A      1.452573  
     112A      1.452573   113A      1.499251   114A      1.509877  
     115A      1.576350   116A      1.580940   117A      1.580940  
     118A      1.629530   119A      1.629531   120A      1.707819  
     121A      1.777805   122A      1.777806   123A      1.779726  
     124A      1.785161   125A      1.785161   126A      1.823067  
     127A      1.856081   128A      1.856082   129A      1.907435  
     130A      1.994668   131A      1.994669   132A      2.011135  
     133A      2.011137   134A      2.103258   135A      2.183919  
     136A      2.183921   137A      2.219330   138A      2.268198  
     139A      2.268198   140A      2.332334   141A      2.365363  
     142A      2.413544   143A      2.413544   144A      2.735218  
     145A      2.954953   146A      3.132265   147A      3.132269  
     148A      3.210507   149A      3.356999   150A      3.356999  
     151A      3.393583   152A      3.406596   153A      3.406597  
     154A      3.513435   155A      3.513436   156A      3.520761  
     157A      3.618530   158A      3.685178   159A      3.685180  
     160A      3.744291   161A      3.744292   162A      3.835185  
     163A      3.835188   164A      3.843152   165A      3.845805  
     166A      3.883465   167A      3.891704   168A      3.891706  
     169A      3.981446   170A      3.981448   171A      4.065454  
     172A      4.074058   173A      4.074061   174A      4.150288  
     175A      4.200252   176A      4.200252   177A      4.283954  
     178A      4.297608   179A      4.319780   180A      4.319781  
     181A      4.380921   182A      4.426036   183A      4.426037  
     184A      4.469491   185A      4.469494   186A      4.558290  
     187A      4.558291   188A      4.605520   189A      4.619383  
     190A      4.667327   191A      4.667328   192A      4.684516  
     193A      4.744039   194A      4.744041   195A      4.829455  
     196A      4.829458   197A      4.859449   198A      4.910373  
     199A      4.970957   200A      4.970959   201A      5.024427  
     202A      5.187343   203A      5.213052   204A      5.213053  
     205A      5.275539   206A      5.517724   207A      5.517727  
     208A      5.545379   209A      5.545381   210A      5.557761  
     211A      5.591411   212A      5.778858   213A      5.778864  
     214A      5.839399   215A      5.839401   216A      5.894545  
     217A      6.096582   218A      6.193641   219A      6.193648  
     220A      6.274805   221A      6.462063   222A      6.462067  
     223A      6.477479   224A      6.607302   225A      6.831537  
     226A      6.831539   227A      7.504851   228A      7.504856  
     229A     17.284754   230A     18.582887  

    Final Occupation by Irrep:
              A 
    DOCC [     9 ]

  @DF-RHF Final Energy:   -95.61790802741314

   => Energetics <=

    Nuclear Repulsion Energy =             47.7514204284753703
    One-Electron Energy =                -217.7426271962736735
    Two-Electron Energy =                  74.3732987403851666
    Total Energy =                        -95.6179080274131366

Computation Completed

*** tstop() called on DESKTOP-26BCFJT at Thu Nov  3 12:44:35 2022
Module time:
	user time   =       7.86 seconds =       0.13 minutes
	system time =       0.28 seconds =       0.00 minutes
	total time  =          2 seconds =       0.03 minutes
Total time:
	user time   =       7.86 seconds =       0.13 minutes
	system time =       0.28 seconds =       0.00 minutes
	total time  =          2 seconds =       0.03 minutes
   => Loading Basis Set <=

    Name: (AUG-CC-PVTZ AUX)
    Role: RIFIT
    Keyword: DF_BASIS_MP2
    atoms 1   entry C          line   148 file /home/chase/psi4conda/share/psi4/basis/aug-cc-pvtz-ri.gbs 
    atoms 2   entry N          line   206 file /home/chase/psi4conda/share/psi4/basis/aug-cc-pvtz-ri.gbs 
    atoms 3-8 entry H          line    30 file /home/chase/psi4conda/share/psi4/basis/aug-cc-pvtz-ri.gbs 


*** tstart() called on DESKTOP-26BCFJT
*** at Thu Nov  3 12:44:35 2022


  //>>>>>>>>>>>>>>>>>>>>>>>>>>>>>>>>>>>//
  //               DFMP2               //
  //<<<<<<<<<<<<<<<<<<<<<<<<<<<<<<<<<<<//

	 --------------------------------------------------------
	                          DF-MP2                         
	      2nd-Order Density-Fitted Moller-Plesset Theory     
	              RMP2 Wavefunction,   6 Threads             
	                                                         
	        Rob Parrish, Justin Turney, Andy Simmonett,      
	           Ed Hohenstein, and C. David Sherrill          
	 --------------------------------------------------------

   => Auxiliary Basis Set <=

  Basis Set: (AUG-CC-PVTZ AUX)
    Blend: AUG-CC-PVTZ-RI
    Number of shells: 140
    Number of basis functions: 488
    Number of Cartesian functions: 602
    Spherical Harmonics?: true
    Max angular momentum: 4

	 --------------------------------------------------------
	                 NBF =   230, NAUX =   488
	 --------------------------------------------------------
	   CLASS    FOCC     OCC    AOCC    AVIR     VIR    FVIR
	   PAIRS       2       9       7     221     221       0
	 --------------------------------------------------------

  DFHelper Memory: AOs need 0.206 GiB; user supplied 3.492 GiB. Using in-core AOs.


         ------------------------------------------------------------
                                     CPHF                           
                                  Rob Parrish                       
         ------------------------------------------------------------

  ==> Geometry <==

    Molecular point group: c1
    Full point group: C1

    Geometry (in Angstrom), charge = 1, multiplicity = 1:

       Center              X                  Y                   Z               Mass       
    ------------   -----------------  -----------------  -----------------  -----------------
         C            0.795210347031    -0.061061835964     0.098450213896    12.000000000000
         N           -0.695205151533     0.053382288213    -0.086069082880    14.003074004430
         H           -1.122317037916    -0.857698994051    -0.298859606916     1.007825032230
         H           -1.155604888103     0.415137354094     0.759474147268     1.007825032230
         H           -0.934271493711     0.689220276298    -0.858297767647     1.007825032230
         H            0.987037818056    -0.742579989867     0.924143266700     1.007825032230
         H            1.226046814754    -0.446613948224    -0.822829416487     1.007825032230
         H            1.190099300796     0.927875911153     0.320013531124     1.007825032230

  Nuclear repulsion =   47.751420428475370
  Reference energy  =  -95.617908027413137

  ==> Basis Set <==

  Basis Set: AUG-CC-PVTZ
    Blend: AUG-CC-PVTZ
    Number of shells: 82
    Number of basis functions: 230
    Number of Cartesian functions: 260
    Spherical Harmonics?: true
    Max angular momentum: 3

  ==> CGRSolver (by Rob Parrish) <==

   Number of roots    =         1
   Preconditioning    =    JACOBI
   Convergence cutoff =     1E-06
   Maximum iterations =       100

  ==> CPHFRHamiltonian (by Rob Parrish) <== 

  ==> MemDFJK: Density-Fitted J/K Matrices <==

    J tasked:                   Yes
    K tasked:                   Yes
    wK tasked:                   No
    OpenMP threads:               6
    Memory [MiB]:              3576
    Algorithm:                 Core
    Schwarz Cutoff:           1E-12
    Mask sparsity (%):       0.0000
    Fitting Condition:        1E-10

   => Auxiliary Basis Set <=

  Basis Set: (AUG-CC-PVTZ AUX)
    Blend: AUG-CC-PVTZ-JKFIT
    Number of shells: 144
    Number of basis functions: 484
    Number of Cartesian functions: 592
    Spherical Harmonics?: true
    Max angular momentum: 4

  ==> CPHF Iterations <==

  => Iterations <=

             Iter  Converged  Remaining    Residual
  CGR           1          0          1   7.253E-02
  CGR           2          0          1   1.415E-02
  CGR           3          0          1   4.540E-03
  CGR           4          0          1   9.925E-04
  CGR           5          0          1   2.369E-04
  CGR           6          0          1   4.314E-05
  CGR           7          0          1   4.048E-06
  CGR           8          1          0   4.518E-07

    CGRSolver converged.

	-----------------------------------------------------------
	 ==================> DF-MP2 Energies <==================== 
	-----------------------------------------------------------
	 Reference Energy          =     -95.6179080274131366 [Eh]
	 Singles Energy            =      -0.0000000000000000 [Eh]
	 Same-Spin Energy          =      -0.0843505621677474 [Eh]
	 Opposite-Spin Energy      =      -0.3182986149750501 [Eh]
	 Correlation Energy        =      -0.4026491771427975 [Eh]
	 Total Energy              =     -96.0205572045559279 [Eh]
	-----------------------------------------------------------
	 ================> DF-SCS-MP2 Energies <================== 
	-----------------------------------------------------------
	 SCS Same-Spin Scale       =       0.3333333333333333 [-]
	 SCS Opposite-Spin Scale   =       1.2000000000000000 [-]
	 SCS Same-Spin Energy      =      -0.0281168540559158 [Eh]
	 SCS Opposite-Spin Energy  =      -0.3819583379700601 [Eh]
	 SCS Correlation Energy    =      -0.4100751920259759 [Eh]
	 SCS Total Energy          =     -96.0279832194391076 [Eh]
	-----------------------------------------------------------



Properties will be evaluated at   0.000000,   0.000000,   0.000000 [a0]

Properties computed using the MP2 density matrix


 Multipole Moments:

 ------------------------------------------------------------------------------------
     Multipole            Electronic (a.u.)      Nuclear  (a.u.)        Total (a.u.)
 ------------------------------------------------------------------------------------

 L = 1.  Multiply by 2.5417464519 to convert [e a0] to [Debye]
 Dipole X            :         -1.0253783            0.1810670           -0.8443113
 Dipole Y            :          0.0787328           -0.0138978            0.0648350
 Dipole Z            :         -0.1269457            0.0224157           -0.1045301
 Magnitude           :                                                    0.8532243

 ------------------------------------------------------------------------------------
  Mulliken Charges: (a.u.)
   Center  Symbol    Alpha    Beta     Spin     Total
       1     C     3.40134  3.40134  0.00000 -0.80268
       2     N     3.45163  3.45163  0.00000  0.09675
       3     H     0.40944  0.40944  0.00000  0.18112
       4     H     0.40944  0.40944  0.00000  0.18113
       5     H     0.40944  0.40944  0.00000  0.18113
       6     H     0.30624  0.30624  0.00000  0.38752
       7     H     0.30624  0.30624  0.00000  0.38752
       8     H     0.30624  0.30624  0.00000  0.38752

   Total alpha =  9.00000, Total beta =  9.00000, Total charge =  1.00000



  Wiberg Bond Indices using Orthogonal Lowdin Orbitals:

  Irrep: 1 Size: 8 x 8

                 1                   2                   3                   4                   5

    1     0.00000000000000     1.11991060605206     0.22981597397887     0.22981552883192     0.22981536690377
    2     1.11991060605206     0.00000000000000     0.91657317912523     0.91657018519048     0.91656901518536
    3     0.22981597397887     0.91657317912523     0.00000000000000     0.25524145006972     0.25524119298981
    4     0.22981552883192     0.91657018519048     0.25524145006972     0.00000000000000     0.25524043302962
    5     0.22981536690377     0.91656901518536     0.25524119298981     0.25524043302962     0.00000000000000
    6     0.84207874073588     0.23617067382629     0.04181016856228     0.04181033731825     0.03004414534783
    7     0.84208200017584     0.23617137011638     0.04181040890180     0.03004425019675     0.04181027993881
    8     0.84208243976172     0.23617175974696     0.03004435483780     0.04181032890599     0.04181057093455

                 6                   7                   8

    1     0.84207874073588     0.84208200017584     0.84208243976172
    2     0.23617067382629     0.23617137011638     0.23617175974696
    3     0.04181016856228     0.04181040890180     0.03004435483780
    4     0.04181033731825     0.03004425019675     0.04181032890599
    5     0.03004414534783     0.04181027993881     0.04181057093455
    6     0.00000000000000     0.25778801801053     0.25778835490337
    7     0.25778801801053     0.00000000000000     0.25779027285450
    8     0.25778835490337     0.25779027285450     0.00000000000000



  Atomic Valences: 

 #  #
 Irrep: 1
      1:    4.335600656440069
      2:    4.578136789242759
      3:    1.770536728465508
      4:    1.770532513542728
      5:    1.770531004329757
      6:    1.707490438704421
      7:    1.707496600194599
      8:    1.707498081944885


 Electrostatic potential computed on the grid and written to grid_esp.dat

*** tstop() called on DESKTOP-26BCFJT at Thu Nov  3 12:44:48 2022
Module time:
	user time   =      59.14 seconds =       0.99 minutes
	system time =       1.54 seconds =       0.03 minutes
	total time  =         13 seconds =       0.22 minutes
Total time:
	user time   =      67.41 seconds =       1.12 minutes
	system time =       1.83 seconds =       0.03 minutes
	total time  =         15 seconds =       0.25 minutes
  ==> One Electron Grid Properties (v2.0) <==

  ==> CubicScalarGrid <==

    Filepath     = .
    Total Points =           215296
    XYZ Blocking =               10
    X Points     =               64
    Y Points     =               58
    Z Points     =               58
    X Spacing    =        2.000E-01
    Y Spacing    =        2.000E-01
    Z Spacing    =        2.000E-01
    X Minimum    =       -6.233E+00
    Y Minimum    =       -5.634E+00
    Z Minimum    =       -5.638E+00
    X Maximum    =        6.367E+00
    Y Maximum    =        5.766E+00
    Z Maximum    =        5.762E+00

  Basis Set: AUG-CC-PVTZ
    Blend: AUG-CC-PVTZ
    Number of shells: 82
    Number of basis functions: 230
    Number of Cartesian functions: 260
    Spherical Harmonics?: true
    Max angular momentum: 3

*********************************************************************************************************************
When computing potential integrals with different bra and ket basis, the atom definition is taken from the bra basis.
*********************************************************************************************************************
*********************************************************************************************************************
When computing potential integrals with different bra and ket basis, the atom definition is taken from the bra basis.
*********************************************************************************************************************
*********************************************************************************************************************
When computing potential integrals with different bra and ket basis, the atom definition is taken from the bra basis.
*********************************************************************************************************************
*********************************************************************************************************************
When computing potential integrals with different bra and ket basis, the atom definition is taken from the bra basis.
*********************************************************************************************************************
*********************************************************************************************************************
When computing potential integrals with different bra and ket basis, the atom definition is taken from the bra basis.
*********************************************************************************************************************
*********************************************************************************************************************
When computing potential integrals with different bra and ket basis, the atom definition is taken from the bra basis.
*********************************************************************************************************************
   => Loading Basis Set <=

    Name: AUG-CC-PVTZ
    Role: ORBITAL
    Keyword: BASIS
    atoms 1   entry C          line   239 file /home/chase/psi4conda/share/psi4/basis/aug-cc-pvtz.gbs 
    atoms 2   entry N          line   285 file /home/chase/psi4conda/share/psi4/basis/aug-cc-pvtz.gbs 
    atoms 3-8 entry H          line    40 file /home/chase/psi4conda/share/psi4/basis/aug-cc-pvtz.gbs 

FCHKWriter: !WARNING! method 'MP2'' renamed to label 'MP2'.
FCHKWriter: Writing mamm-esp.fchk with label ' MP2 Density'.

    Psi4 stopped on: Thursday, 03 November 2022 12:44PM
    Psi4 wall time for execution: 0:00:18.48

*** Psi4 exiting successfully. Buy a developer a beer!
