9
 energy: -23.457627420711 gnorm: 0.000691534164 xtb: 6.5.1 (b24c23e)
S           -0.39954071252931       -0.26688132473533        0.15301971339626
O           -0.96423850856066       -1.32940796612586       -0.65890920980340
O           -0.97263539511050       -0.17562933046789        1.47989279439187
O            1.17771249944464       -0.76827798278525        0.45597559007384
C            2.00073204101768       -0.29084540623027       -0.54865202817443
O           -0.27483535275929        1.00784544548655       -0.53369397701053
H            1.98516718098000        0.80311219834468       -0.57199043496195
H            3.01868545413797       -0.65193353804516       -0.36342427068276
H            1.65463679337949       -0.65277308544146       -1.52515218722892
