      -----------------------------------------------------------      
     |                   =====================                   |     
     |                           x T B                           |     
     |                   =====================                   |     
     |                         S. Grimme                         |     
     |          Mulliken Center for Theoretical Chemistry        |     
     |                    University of Bonn                     |     
      -----------------------------------------------------------      

   * xtb version 6.5.1 (b24c23e) compiled by 'conda@728c89f4b128' on 2022-07-12

   xtb is free software: you can redistribute it and/or modify it under
   the terms of the GNU Lesser General Public License as published by
   the Free Software Foundation, either version 3 of the License, or
   (at your option) any later version.
   
   xtb is distributed in the hope that it will be useful,
   but WITHOUT ANY WARRANTY; without even the implied warranty of
   MERCHANTABILITY or FITNESS FOR A PARTICULAR PURPOSE.  See the
   GNU Lesser General Public License for more details.
   
   Cite this work as:
   * C. Bannwarth, E. Caldeweyher, S. Ehlert, A. Hansen, P. Pracht,
     J. Seibert, S. Spicher, S. Grimme, WIREs Comput. Mol. Sci., 2020, 11,
     e01493. DOI: 10.1002/wcms.1493
   
   for GFN2-xTB:
   * C. Bannwarth, S. Ehlert and S. Grimme., J. Chem. Theory Comput., 2019,
     15, 1652-1671. DOI: 10.1021/acs.jctc.8b01176
   for GFN1-xTB:
   * S. Grimme, C. Bannwarth, P. Shushkov, J. Chem. Theory Comput., 2017,
     13, 1989-2009. DOI: 10.1021/acs.jctc.7b00118
   for GFN0-xTB:
   * P. Pracht, E. Caldeweyher, S. Ehlert, S. Grimme, ChemRxiv, 2019, preprint.
     DOI: 10.26434/chemrxiv.8326202.v1
   for GFN-FF:
   * S. Spicher and S. Grimme, Angew. Chem. Int. Ed., 2020, 59, 15665-15673.
     DOI: 10.1002/anie.202004239
   
   for ALPB and GBSA implicit solvation:
   * S. Ehlert, M. Stahn, S. Spicher, S. Grimme, J. Chem. Theory Comput.,
     2021, 17, 4250-4261. DOI: 10.1021/acs.jctc.1c00471
   
   for DFT-D4:
   * E. Caldeweyher, C. Bannwarth and S. Grimme, J. Chem. Phys., 2017,
     147, 034112. DOI: 10.1063/1.4993215
   * E. Caldeweyher, S. Ehlert, A. Hansen, H. Neugebauer, S. Spicher,
     C. Bannwarth and S. Grimme, J. Chem. Phys., 2019, 150, 154122.
     DOI: 10.1063/1.5090222
   * E. Caldeweyher, J.-M. Mewes, S. Ehlert and S. Grimme, Phys. Chem. Chem. Phys.
     2020, 22, 8499-8512. DOI: 10.1039/D0CP00502A
   
   for sTDA-xTB:
   * S. Grimme and C. Bannwarth, J. Chem. Phys., 2016, 145, 054103.
     DOI: 10.1063/1.4959605
   
   in the mass-spec context:
   * V. Asgeirsson, C. Bauer and S. Grimme, Chem. Sci., 2017, 8, 4879.
     DOI: 10.1039/c7sc00601b
   * J. Koopman and S. Grimme, ACS Omega 2019, 4, 12, 15120-15133.
     DOI: 10.1021/acsomega.9b02011
   
   for metadynamics refer to:
   * S. Grimme, J. Chem. Theory Comput., 2019, 155, 2847-2862
     DOI: 10.1021/acs.jctc.9b00143
   
   for SPH calculations refer to:
   * S. Spicher and S. Grimme, J. Chem. Theory Comput., 2021, 17, 1701-1714
     DOI: 10.1021/acs.jctc.0c01306
   
   with help from (in alphabetical order)
   P. Atkinson, C. Bannwarth, F. Bohle, G. Brandenburg, E. Caldeweyher
   M. Checinski, S. Dohm, S. Ehlert, S. Ehrlich, I. Gerasimov, C. Hölzer
   A. Katbashev, J. Koopman, C. Lavigne, S. Lehtola, F. März, M. Müller,
   F. Musil, H. Neugebauer, J. Pisarek, C. Plett, P. Pracht, F. Pultar,
   J. Seibert, P. Shushkov, S. Spicher, M. Stahn, M. Steiner, T. Strunk,
   J. Stückrath, T. Rose, and J. Unsleber
   
 * started run on 2022/11/03 at 12:53:25.708     

           -------------------------------------------------
          |                Calculation Setup                |
           -------------------------------------------------

          program call               : /home/chase/psi4conda/envs/xtbenv/bin/xtb --gfn 2 --chrg -1 --uhf 0 mso4-opt-4-5-091_preQMOPTprefit_xyzformat.xyz --opt --input xtb-opt-4-5-091_constr.txt
          coordinate file            : mso4-opt-4-5-091_preQMOPTprefit_xyzformat.xyz
          omp threads                :                     8

   ID    Z sym.   atoms
    1   16 S      1
    2    8 O      2-4, 6
    3    6 C      5
    4    1 H      7-9
constraining angle 1 4 5 7 to   90.9795690°, actual value:   90.9795690°
constraining angle 2 1 4 5 to  300.0108446°, actual value:  -59.9891554°

           -------------------------------------------------
          |                 G F N 2 - x T B                 |
           -------------------------------------------------

        Reference                      10.1021/acs.jctc.8b01176
      * Hamiltonian:
        H0-scaling (s, p, d)           1.850000    2.230000    2.230000
        zeta-weighting                 0.500000
      * Dispersion:
        s8                             2.700000
        a1                             0.520000
        a2                             5.000000
        s9                             5.000000
      * Repulsion:
        kExp                           1.500000    1.000000
        rExp                           1.000000
      * Coulomb:
        alpha                          2.000000
        third order                    shell-resolved
        anisotropic                    true
        a3                             3.000000
        a5                             4.000000
        cn-shift                       1.200000
        cn-exp                         4.000000
        max-rad                        5.000000

q/qsh data taken from xtbrestart
CAMM data taken from xtbrestart

          ...................................................
          :                      SETUP                      :
          :.................................................:
          :  # basis functions                  33          :
          :  # atomic orbitals                  32          :
          :  # shells                           16          :
          :  # electrons                        38          :
          :  max. iterations                   250          :
          :  Hamiltonian                  GFN2-xTB          :
          :  restarted?                       true          :
          :  GBSA solvation                  false          :
          :  PC potential                    false          :
          :  electronic temp.          300.0000000     K    :
          :  accuracy                    1.0000000          :
          :  -> integral cutoff          0.2500000E+02      :
          :  -> integral neglect         0.1000000E-07      :
          :  -> SCF convergence          0.1000000E-05 Eh   :
          :  -> wf. convergence          0.1000000E-03 e    :
          :  Broyden damping             0.4000000          :
          ...................................................

 iter      E             dE          RMSdq      gap      omega  full diag
   1    -23.5610311 -0.235610E+02  0.837E-01    7.51       0.0  T
   2    -23.5613320 -0.300924E-03  0.496E-01    7.55       1.0  T
   3    -23.5613585 -0.264763E-04  0.149E-01    7.56       1.0  T
   4    -23.5613608 -0.230940E-05  0.458E-02    7.56       1.0  T
   5    -23.5613612 -0.403674E-06  0.734E-03    7.56       4.5  T
   6    -23.5613612 -0.358426E-07  0.389E-03    7.56       8.6  T
   7    -23.5613612 -0.110192E-07  0.748E-04    7.56      44.6  T
   8    -23.5613612 -0.499842E-09  0.378E-04    7.56      88.3  T

   *** convergence criteria satisfied after 8 iterations ***

         #    Occupation            Energy/Eh            Energy/eV
      -------------------------------------------------------------
         1        2.0000           -0.5707897             -15.5320
       ...           ...                  ...                  ...
        13        2.0000           -0.2741744              -7.4607
        14        2.0000           -0.2560406              -6.9672
        15        2.0000           -0.2507185              -6.8224
        16        2.0000           -0.2484431              -6.7605
        17        2.0000           -0.2419012              -6.5825
        18        2.0000           -0.2397342              -6.5235
        19        2.0000           -0.2286814              -6.2227 (HOMO)
        20                          0.0491926               1.3386 (LUMO)
        21                          0.1090971               2.9687
        22                          0.1845409               5.0216
        23                          0.2265175               6.1639
        24                          0.2587444               7.0408
       ...                                ...                  ...
        32                          1.2819044              34.8824
      -------------------------------------------------------------
                  HL-Gap            0.2778741 Eh            7.5613 eV
             Fermi-level           -0.0897444 Eh           -2.4421 eV

 SCC (total)                   0 d,  0 h,  0 min,  0.261 sec
 SCC setup                      ...        0 min,  0.005 sec (  1.803%)
 Dispersion                     ...        0 min,  0.013 sec (  4.930%)
 classical contributions        ...        0 min,  0.004 sec (  1.533%)
 integral evaluation            ...        0 min,  0.024 sec (  9.197%)
 iterations                     ...        0 min,  0.153 sec ( 58.579%)
 molecular gradient             ...        0 min,  0.062 sec ( 23.906%)
 printout                       ...        0 min,  0.000 sec (  0.047%)

         :::::::::::::::::::::::::::::::::::::::::::::::::::::
         ::                     SUMMARY                     ::
         :::::::::::::::::::::::::::::::::::::::::::::::::::::
         :: total energy             -23.453798119654 Eh    ::
         :: gradient norm              0.057235753490 Eh/a0 ::
         :: HOMO-LUMO gap              7.561338070624 eV    ::
         ::.................................................::
         :: SCC energy               -23.561361215541 Eh    ::
         :: -> isotropic ES            0.216090877867 Eh    ::
         :: -> anisotropic ES         -0.016325436874 Eh    ::
         :: -> anisotropic XC         -0.004183699919 Eh    ::
         :: -> dispersion             -0.006921609274 Eh    ::
         :: repulsion energy           0.107560774358 Eh    ::
         :: add. restraining           0.000000000000 Eh    ::
         :: total charge              -1.000000000000 e     ::
         :::::::::::::::::::::::::::::::::::::::::::::::::::::

      ----------------------------------------------------------- 
     |                   =====================                   |
     |                        A N C O P T                        |
     |                   =====================                   |
     |               Approximate Normal Coordinate               |
     |                Rational Function Optimizer                |
      ----------------------------------------------------------- 

          ...................................................
          :                      SETUP                      :
          :.................................................:
          :   optimization level            normal          :
          :   max. optcycles                   200          :
          :   ANC micro-cycles                  20          :
          :   degrees of freedom                21          :
          :.................................................:
          :   RF solver                   davidson          :
          :   write xtbopt.log                true          :
          :   linear?                        false          :
          :   energy convergence         0.5000000E-05 Eh   :
          :   grad. convergence          0.1000000E-02 Eh/α :
          :   maximium RF displ.         1.0000000          :
          :   Hlow (freq-cutoff)         0.1000000E-01      :
          :   Hmax (freq-cutoff)         5.0000000          :
          :   S6 in model hess.         20.0000000          :
          ...................................................

generating ANC from model Hessian ...
Using Lindh-Hessian (1995)
 Shifting diagonal of input Hessian by    0.0000000000000000     
 Lowest  eigenvalues of input Hessian
    0.000000    0.000000    0.000000    0.000000    0.000000    0.000000
    0.018428    0.040585    0.054437    0.077087    0.090798    0.099332
    0.134489    0.214429    0.308783    0.375813    0.481802    0.524529
 Highest eigenvalues
    1.361913    1.789942    2.091629    2.922967    4.086983    8.639812


........................................................................
.............................. CYCLE    1 ..............................
........................................................................
   1    -23.5613612 -0.235614E+02  0.127E-04    7.56       0.0  T
   2    -23.5613612 -0.111484E-10  0.874E-05    7.56     381.3  T
   3    -23.5613612 -0.120437E-10  0.276E-05    7.56    1207.8  T
     SCC iter.                  ...        0 min,  0.054 sec
     gradient                   ...        0 min,  0.058 sec
 * total energy  :   -23.4537981 Eh     change       -0.1680363E-09 Eh
   gradient norm :     0.0572358 Eh/α   predicted     0.0000000E+00 (-100.00%)
   displ. norm   :     0.2695085 α      lambda       -0.6066977E-02
   maximum displ.:     0.2336810 α      in ANC's #1, #5, #9, ...

........................................................................
.............................. CYCLE    2 ..............................
........................................................................
   1    -23.5707688 -0.235708E+02  0.299E-01    8.01       0.0  T
   2    -23.5708277 -0.589189E-04  0.183E-01    7.99       1.0  T
   3    -23.5708313 -0.361266E-05  0.727E-02    7.99       1.0  T
   4    -23.5708319 -0.533264E-06  0.172E-02    7.99       1.9  T
   5    -23.5708320 -0.877841E-07  0.338E-03    7.99       9.9  T
   6    -23.5708320 -0.548442E-08  0.212E-03    7.99      15.7  T
   7    -23.5708320 -0.344523E-08  0.283E-04    7.99     118.0  T
   8    -23.5708320 -0.737046E-10  0.169E-04    7.99     197.8  T
     SCC iter.                  ...        0 min,  0.184 sec
     gradient                   ...        0 min,  0.054 sec
 * total energy  :   -23.4583376 Eh     change       -0.4539442E-02 Eh
   gradient norm :     0.0325617 Eh/α   predicted    -0.3253818E-02 ( -28.32%)
   displ. norm   :     0.2700208 α      lambda       -0.3285396E-02
   maximum displ.:     0.2475948 α      in ANC's #1, #9, #15, ...

........................................................................
.............................. CYCLE    3 ..............................
........................................................................
   1    -23.5790385 -0.235790E+02  0.264E-01    8.46       0.0  T
   2    -23.5790853 -0.467892E-04  0.164E-01    8.45       1.0  T
   3    -23.5790885 -0.323115E-05  0.621E-02    8.44       1.0  T
   4    -23.5790889 -0.383736E-06  0.152E-02    8.44       2.2  T
   5    -23.5790890 -0.840741E-07  0.299E-03    8.44      11.2  T
   6    -23.5790890 -0.804451E-08  0.163E-03    8.44      20.4  T
   7    -23.5790890 -0.392616E-08  0.391E-04    8.44      85.2  T
   8    -23.5790890 -0.211028E-09  0.201E-04    8.44     165.7  T
     SCC iter.                  ...        0 min,  0.187 sec
     gradient                   ...        0 min,  0.067 sec
 * total energy  :   -23.4600205 Eh     change       -0.1682946E-02 Eh
   gradient norm :     0.0101228 Eh/α   predicted    -0.1762471E-02 (   4.73%)
   displ. norm   :     0.0221244 α      lambda       -0.1008075E-03
   maximum displ.:     0.0160411 α      in ANC's #5, #3, #4, ...

........................................................................
.............................. CYCLE    4 ..............................
........................................................................
   1    -23.5800308 -0.235800E+02  0.477E-02    8.49       0.0  T
   2    -23.5800319 -0.112927E-05  0.250E-02    8.49       1.3  T
   3    -23.5800320 -0.675812E-07  0.949E-03    8.49       3.5  T
   4    -23.5800320 -0.753071E-08  0.261E-03    8.49      12.8  T
   5    -23.5800320 -0.146285E-08  0.417E-04    8.49      79.9  T
   6    -23.5800320 -0.121069E-09  0.262E-04    8.49     127.2  T
     SCC iter.                  ...        0 min,  0.155 sec
     gradient                   ...        0 min,  0.063 sec
 * total energy  :   -23.4600781 Eh     change       -0.5763654E-04 Eh
   gradient norm :     0.0074186 Eh/α   predicted    -0.5042797E-04 ( -12.51%)
   displ. norm   :     0.0168905 α      lambda       -0.3098117E-04
   maximum displ.:     0.0103297 α      in ANC's #5, #2, #1, ...

........................................................................
.............................. CYCLE    5 ..............................
........................................................................
   1    -23.5805132 -0.235805E+02  0.314E-02    8.52       0.0  T
   2    -23.5805139 -0.677644E-06  0.168E-02    8.52       2.0  T
   3    -23.5805139 -0.341432E-07  0.712E-03    8.52       4.7  T
   4    -23.5805140 -0.560469E-08  0.204E-03    8.52      16.3  T
   5    -23.5805140 -0.826095E-09  0.299E-04    8.52     111.3  T
   6    -23.5805140 -0.474820E-10  0.188E-04    8.52     177.6  T
     SCC iter.                  ...        0 min,  0.157 sec
     gradient                   ...        0 min,  0.063 sec
 * total energy  :   -23.4600928 Eh     change       -0.1461637E-04 Eh
   gradient norm :     0.0025618 Eh/α   predicted    -0.1549631E-04 (   6.02%)
   displ. norm   :     0.0060312 α      lambda       -0.4724393E-05
   maximum displ.:     0.0047041 α      in ANC's #1, #8, #10, ...

........................................................................
.............................. CYCLE    6 ..............................
........................................................................
   1    -23.5805061 -0.235805E+02  0.974E-03    8.52       0.0  T
   2    -23.5805062 -0.843420E-07  0.637E-03    8.52       5.2  T
   3    -23.5805062 -0.238699E-08  0.297E-03    8.52      11.2  T
   4    -23.5805062 -0.573841E-09  0.549E-04    8.52      60.7  T
   5    -23.5805062 -0.464908E-10  0.107E-04    8.52     312.0  T
     SCC iter.                  ...        0 min,  0.126 sec
     gradient                   ...        0 min,  0.062 sec
 * total energy  :   -23.4600959 Eh     change       -0.3100889E-05 Eh
   gradient norm :     0.0011087 Eh/α   predicted    -0.2364384E-05 ( -23.75%)
   displ. norm   :     0.0044774 α      lambda       -0.1323917E-05
   maximum displ.:     0.0023315 α      in ANC's #1, #4, #5, ...

........................................................................
.............................. CYCLE    7 ..............................
........................................................................
   1    -23.5804701 -0.235805E+02  0.836E-03    8.52       0.0  T
   2    -23.5804702 -0.102647E-06  0.581E-03    8.52       5.7  T
   3    -23.5804702 -0.173298E-08  0.322E-03    8.52      10.3  T
   4    -23.5804702 -0.509203E-09  0.517E-04    8.52      64.5  T
   5    -23.5804702 -0.408491E-10  0.934E-05    8.52     356.9  T
     SCC iter.                  ...        0 min,  0.070 sec
     gradient                   ...        0 min,  0.047 sec
 * total energy  :   -23.4600967 Eh     change       -0.7982306E-06 Eh
   gradient norm :     0.0003511 Eh/α   predicted    -0.6616541E-06 ( -17.11%)
   displ. norm   :     0.0013528 α      lambda       -0.1962202E-06
   maximum displ.:     0.0008054 α      in ANC's #8, #4, #1, ...

   *** GEOMETRY OPTIMIZATION CONVERGED AFTER 7 ITERATIONS ***

------------------------------------------------------------------------
 total energy gain   :        -0.0062985 Eh       -3.9524 kcal/mol
 total RMSD          :         0.1812189 a0        0.0959 Å
 total power (kW/mol):        -2.3624023 (step)   -9.8342 (real)
------------------------------------------------------------------------

 ANCopt (total)                0 d,  0 h,  0 min,  1.682 sec
 optimizer setup                ...        0 min,  0.000 sec (  0.003%)
 model hessian                  ...        0 min,  0.003 sec (  0.161%)
 ANC generation                 ...        0 min,  0.000 sec (  0.012%)
 coordinate transformation      ...        0 min,  0.000 sec (  0.002%)
 single point calculation       ...        0 min,  1.649 sec ( 98.043%)
 optimization log               ...        0 min,  0.001 sec (  0.032%)
 hessian update                 ...        0 min,  0.029 sec (  1.696%)
 rational function              ...        0 min,  0.001 sec (  0.033%)

================
 final structure:
================
9
 xtb: 6.5.1 (b24c23e)
S           -0.36422645196937        0.03269803591529        0.11061010607545
O           -0.72148845843871       -0.17089947264833       -1.28254925120307
O           -0.33196289691571       -1.19825706918322        0.88447951782118
O            1.23328536213919        0.54451451266539        0.06105745906409
C            1.96738517329214       -0.46530110641623       -0.54336017202451
O           -1.04548690680915        1.13252294828610        0.75647245896084
H            2.02190631904117       -0.31098176169990       -1.62852216249398
H            2.98283334593728       -0.46463231152238       -0.12929562805830
H            1.48343951372316       -1.42445577539672       -0.34182731814171

 Bond Distances (Angstroems)
 ---------------------------
S1-O2=1.4526         S1-O3=1.4544         S1-O4=1.6782         S1-O6=1.4460         O2-S1=1.4526         O3-S1=1.4544         
O4-S1=1.6782         O4-C5=1.3871         C5-O4=1.3871         C5-H7=1.0974         C5-H8=1.0966         C5-H9=1.0931         
O6-S1=1.4460         H7-C5=1.0974         H8-C5=1.0966         H9-C5=1.0931         
 C  H  Rav=1.0957 sigma=0.0019  Rmin=1.0931  Rmax=1.0974     3
 O  C  Rav=1.3871 sigma=0.0000  Rmin=1.3871  Rmax=1.3871     1
 S  O  Rav=1.5078 sigma=0.0985  Rmin=1.4460  Rmax=1.6782     4

 selected bond angles (degree)
 --------------------
O3-S1-O2=113.40                O4-S1-O2=104.39                O4-S1-O3=104.64                O6-S1-O2=114.78                
O6-S1-O3=114.62                O6-S1-O4=103.28                C5-O4-S1=107.14                H7-C5-O4=110.78                
H8-C5-O4=108.97                H8-C5-H7=109.10                H9-C5-O4=108.92                H9-C5-H7=109.13                
H9-C5-H8=109.93                

 selected dihedral angles (degree)
 ---------------------------------
C5-O4-S1-O2=300.02            C5-O4-S1-O3= 59.41            C5-O4-S1-O6=179.67            H7-C5-O4-S1= 90.95            
H8-C5-O4-S1=210.99            H9-C5-O4-S1=330.92            
           -------------------------------------------------
          |                Final Singlepoint                |
           -------------------------------------------------

          ...................................................
          :                      SETUP                      :
          :.................................................:
          :  # basis functions                  33          :
          :  # atomic orbitals                  32          :
          :  # shells                           16          :
          :  # electrons                        38          :
          :  max. iterations                   250          :
          :  Hamiltonian                  GFN2-xTB          :
          :  restarted?                      false          :
          :  GBSA solvation                  false          :
          :  PC potential                    false          :
          :  electronic temp.          300.0000000     K    :
          :  accuracy                    1.0000000          :
          :  -> integral cutoff          0.2500000E+02      :
          :  -> integral neglect         0.1000000E-07      :
          :  -> SCF convergence          0.1000000E-05 Eh   :
          :  -> wf. convergence          0.1000000E-03 e    :
          :  Broyden damping             0.4000000          :
          ...................................................

 iter      E             dE          RMSdq      gap      omega  full diag
   1    -23.5804702 -0.235805E+02  0.523E-05    8.52       0.0  T
   2    -23.5804702 -0.564881E-12  0.336E-05    8.52     992.6  T
   3    -23.5804702 -0.429878E-12  0.673E-06    8.52    4956.2  T

   *** convergence criteria satisfied after 3 iterations ***

         #    Occupation            Energy/Eh            Energy/eV
      -------------------------------------------------------------
         1        2.0000           -0.5693295             -15.4922
       ...           ...                  ...                  ...
        13        2.0000           -0.2729735              -7.4280
        14        2.0000           -0.2586825              -7.0391
        15        2.0000           -0.2551756              -6.9437
        16        2.0000           -0.2511910              -6.8353
        17        2.0000           -0.2398677              -6.5271
        18        2.0000           -0.2388383              -6.4991
        19        2.0000           -0.2280561              -6.2057 (HOMO)
        20                          0.0851222               2.3163 (LUMO)
        21                          0.1442399               3.9250
        22                          0.2120346               5.7698
        23                          0.2371932               6.4544
        24                          0.2720183               7.4020
       ...                                ...                  ...
        32                          1.4166188              38.5482
      -------------------------------------------------------------
                  HL-Gap            0.3131783 Eh            8.5220 eV
             Fermi-level           -0.0714670 Eh           -1.9447 eV

 SCC (total)                   0 d,  0 h,  0 min,  0.150 sec
 SCC setup                      ...        0 min,  0.006 sec (  4.213%)
 Dispersion                     ...        0 min,  0.011 sec (  7.293%)
 classical contributions        ...        0 min,  0.007 sec (  4.450%)
 integral evaluation            ...        0 min,  0.020 sec ( 13.625%)
 iterations                     ...        0 min,  0.057 sec ( 38.225%)
 molecular gradient             ...        0 min,  0.048 sec ( 32.100%)
 printout                       ...        0 min,  0.000 sec (  0.085%)

         :::::::::::::::::::::::::::::::::::::::::::::::::::::
         ::                     SUMMARY                     ::
         :::::::::::::::::::::::::::::::::::::::::::::::::::::
         :: total energy             -23.460096660146 Eh    ::
         :: gradient norm              0.000351279611 Eh/a0 ::
         :: HOMO-LUMO gap              8.522014768835 eV    ::
         ::.................................................::
         :: SCC energy               -23.580470185585 Eh    ::
         :: -> isotropic ES            0.213809394394 Eh    ::
         :: -> anisotropic ES         -0.023491871467 Eh    ::
         :: -> anisotropic XC         -0.005758646469 Eh    ::
         :: -> dispersion             -0.007076203728 Eh    ::
         :: repulsion energy           0.120371065320 Eh    ::
         :: add. restraining           0.000000613758 Eh    ::
         :: total charge              -1.000000000000 e     ::
         :::::::::::::::::::::::::::::::::::::::::::::::::::::

           -------------------------------------------------
          |                Property Printout                |
           -------------------------------------------------

    * Orbital Energies and Occupations

         #    Occupation            Energy/Eh            Energy/eV
      -------------------------------------------------------------
         1        2.0000           -0.5693295             -15.4922
       ...           ...                  ...                  ...
         7        2.0000           -0.3897326             -10.6052
         8        2.0000           -0.3879904             -10.5578
         9        2.0000           -0.3816667             -10.3857
        10        2.0000           -0.3239777              -8.8159
        11        2.0000           -0.3174552              -8.6384
        12        2.0000           -0.3125210              -8.5041
        13        2.0000           -0.2729735              -7.4280
        14        2.0000           -0.2586825              -7.0391
        15        2.0000           -0.2551756              -6.9437
        16        2.0000           -0.2511910              -6.8353
        17        2.0000           -0.2398677              -6.5271
        18        2.0000           -0.2388383              -6.4991
        19        2.0000           -0.2280561              -6.2057 (HOMO)
        20                          0.0851222               2.3163 (LUMO)
        21                          0.1442399               3.9250
        22                          0.2120346               5.7698
        23                          0.2371932               6.4544
        24                          0.2720183               7.4020
        25                          0.2961548               8.0588
        26                          0.3389345               9.2229
        27                          0.3522126               9.5842
        28                          0.4293275              11.6826
        29                          0.4506433              12.2626
        30                          0.9439518              25.6862
       ...                                ...                  ...
        32                          1.4166188              38.5482
      -------------------------------------------------------------
                  HL-Gap            0.3131783 Eh            8.5220 eV
             Fermi-level           -0.0714670 Eh           -1.9447 eV

     #   Z          covCN         q      C6AA      α(0)
     1  16 S        3.733     1.436    95.028    16.407
     2   8 O        0.860    -0.707    28.906     7.208
     3   8 O        0.860    -0.709    28.950     7.214
     4   8 O        1.706    -0.483    22.500     6.404
     5   6 C        3.923     0.064    19.443     6.267
     6   8 O        0.860    -0.678    28.104     7.108
     7   1 H        0.924     0.019     2.751     2.594
     8   1 H        0.924     0.017     2.784     2.609
     9   1 H        0.924     0.040     2.442     2.444

 Mol. C6AA /au·bohr⁶  :       1570.681600
 Mol. C8AA /au·bohr⁸  :      40481.992536
 Mol. α(0) /au        :         58.254703


Wiberg/Mayer (AO) data.
largest (>0.10) Wiberg bond orders for each atom

 ---------------------------------------------------------------------------
     #   Z sym  total        # sym  WBO       # sym  WBO       # sym  WBO
 ---------------------------------------------------------------------------
     1  16 S    5.055 --     6 O    1.451     2 O    1.409     3 O    1.401
                             4 O    0.778
     2   8 O    1.725 --     1 S    1.409     3 O    0.121     6 O    0.120
     3   8 O    1.727 --     1 S    1.401     2 O    0.121     6 O    0.119
     4   8 O    2.025 --     5 C    1.009     1 S    0.778
     5   6 C    3.957 --     4 O    1.009     8 H    0.980     7 H    0.978
                             9 H    0.972
     6   8 O    1.761 --     1 S    1.451     2 O    0.120     3 O    0.119
     7   1 H    1.000 --     5 C    0.978
     8   1 H    1.000 --     5 C    0.980
     9   1 H    0.998 --     5 C    0.972
 ---------------------------------------------------------------------------

Topologies differ in total number of bonds
Writing topology from bond orders to xtbtopo.mol

molecular dipole:
                 x           y           z       tot (Debye)
 q only:        1.154      -0.216      -0.349
   full:        1.413      -0.236      -0.406       3.785
molecular quadrupole (traceless):
                xx          xy          yy          xz          yz          zz
 q only:        2.913      -0.469      -1.273      -0.871       0.275      -1.639
  q+dip:        3.056       0.536      -1.754      -0.368      -0.449      -1.303
   full:        3.583       0.150      -1.840      -0.702      -0.117      -1.744

           -------------------------------------------------
          |                Geometry Summary                 |
           -------------------------------------------------

      molecular mass/u    :      111.0969652
   center of mass at/Å    :        0.0417713      -0.0164881       0.0145398
  moments of inertia/u·Å² :        0.9921427E+02   0.1758228E+03   0.1773854E+03
rotational constants/cm⁻¹ :        0.1699114E+00   0.9587856E-01   0.9503396E-01

 * 8 selected distances

     #   Z          #   Z                                           value/Å
     1  16 S        2   8 O                                       1.4525775
     1  16 S        3   8 O                                       1.4543609
     1  16 S        4   8 O                                       1.6782300 (max)
     4   8 O        5   6 C                                       1.3870657
     1  16 S        6   8 O                                       1.4459838
     5   6 C        7   1 H                                       1.0974351
     5   6 C        8   1 H                                       1.0966244
     5   6 C        9   1 H                                       1.0930676 (min)

 * 3 distinct bonds (by element types)

   Z      Z             #   av. dist./Å        max./Å        min./Å
   1 H    6 C           3     1.0957090     1.0974351     1.0930676
   6 C    8 O           1     1.3870657     1.3870657     1.3870657
   8 O   16 S           4     1.5077881     1.6782300     1.4459838


optimized geometry written to: xtbopt.xyz


           -------------------------------------------------
          | TOTAL ENERGY              -23.460096660146 Eh   |
          | GRADIENT NORM               0.000351279611 Eh/α |
          | HOMO-LUMO GAP               8.522014768835 eV   |
           -------------------------------------------------

------------------------------------------------------------------------
 * finished run on 2022/11/03 at 12:53:27.842     
------------------------------------------------------------------------
 total:
 * wall-time:     0 d,  0 h,  0 min,  2.133 sec
 *  cpu-time:     0 d,  0 h,  0 min, 16.967 sec
 * ratio c/w:     7.953 speedup
 SCF:
 * wall-time:     0 d,  0 h,  0 min,  0.261 sec
 *  cpu-time:     0 d,  0 h,  0 min,  2.077 sec
 * ratio c/w:     7.958 speedup
 ANC optimizer:
 * wall-time:     0 d,  0 h,  0 min,  1.832 sec
 *  cpu-time:     0 d,  0 h,  0 min, 14.588 sec
 * ratio c/w:     7.963 speedup

