9
 energy: -23.457624040557 gnorm: 0.000459474362 xtb: 6.5.1 (b24c23e)
S           -0.39143662254700        0.08970105650658       -0.00490067183570
O           -0.88929205549733        0.34480644033083       -1.34438078675055
O           -0.37451910785758       -1.31479966258562        0.36875660258109
O            1.22332100768743        0.55807789708579       -0.06375217474849
C            1.99682618564636       -0.52599256995953       -0.43923832442447
O           -0.94734792724391        0.96756494840853        1.00392392132932
H            1.70035908594155       -0.87696698109472       -1.43632388645640
H            3.04685898474708       -0.21276720912781       -0.45932508637031
H            1.86091545912339       -1.35441592956405        0.26230440667550
