2022-11-03:12:59:21,253 INFO     [psi4.driver.task_planner:266] PLANNING Atomic:  keywords={'FREEZE_CORE': 'TRUE', 'function_kwargs': {}}
2022-11-03:12:59:21,259 INFO     [psi4.driver.driver:499] Compute energy(): method=wb97x-d, basis=6-311+g*, molecule=default, nre=363.4833561983399
2022-11-03:12:59:39,302 INFO     [psi4.driver.driver:502] Return energy(): -739.0039374260617
o,
    A. Alenaizan, A. M. James, S. Lehtola, J. P. Misiewicz, M. Scheurer,
    R. A. Shaw, J. B. Schriber, Y. Xie, Z. L. Glick, D. A. Sirianni,
    J. S. O'Brien, J. M. Waldrop, A. Kumar, E. G. Hohenstein,
    B. P. Pritchard, B. R. Brooks, H. F. Schaefer III, A. Yu. Sokolov,
    K. Patkowski, A. E. DePrince III, U. Bozkaya, R. A. King,
    F. A. Evangelista, J. M. Turney, T. D. Crawford, C. D. Sherrill,
    J. Chem. Phys. 152(18) 184108 (2020). https://doi.org/10.1063/5.0006002

                            Additional Code Authors
    E. T. Seidl, C. L. Janssen, E. F. Valeev, M. L. Leininger,
    J. F. Gonthier, R. M. Richard, H. R. McAlexander, M. Saitow, X. Wang,
    P. Verma, M. H. Lechner, and A. Jiang

             Previous Authors, Complete List of Code Contributors,
                       and Citations for Specific Modules
    https://github.com/psi4/psi4/blob/master/codemeta.json
    https://github.com/psi4/psi4/graphs/contributors
    http://psicode.org/psi4manual/master/introduction.html#citing-psifour

    -----------------------------------------------------------------------


    Psi4 started on: Thursday, 03 November 2022 12:59PM

    Process ID: 9281
    Host:       DESKTOP-26BCFJT
    PSIDATADIR: /home/chase/psi4conda/share/psi4
    Memory:     500.0 MiB
    Threads:    1
    
  ==> Input File <==

--------------------------------------------------------------------------
molecule { 
-1 1
 S   -0.301988    0.015381    0.282198
 O   -0.867254   -0.929808   -0.664491
 O    0.223075   -0.613418    1.483641
 O    1.049513    0.630449   -0.499495
 C    1.891584   -0.439804   -0.763329
 O   -1.110870    1.189955    0.521465
 H    2.931166   -0.093463   -0.742265
 H    1.745209   -1.199987    0.009700
 H    1.665249   -0.884097   -1.740358
}
memory 1GB
set_num_threads(2)
psi4_io.set_default_path("/home/chase/temp/Psi4-mso4")
set freeze_core True
E, wfn = energy('wb97x-d/6-311+G*',return_wfn=True)
oeprop(wfn,"WIBERG_LOWDIN_INDICES")
clean()
--------------------------------------------------------------------------

  Memory set to 953.674 MiB by Python driver.
  Threads set to 2 by Python driver.

Scratch directory: /home/chase/temp/Psi4-mso4/

*** tstart() called on DESKTOP-26BCFJT
*** at Thu Nov  3 12:59:21 2022

   => Loading Basis Set <=

    Name: 6-311+G*
    Role: ORBITAL
    Keyword: BASIS
    atoms 1      entry S          line   430 file /home/chase/psi4conda/share/psi4/basis/6-311pgs.gbs 
    atoms 2-4, 6 entry O          line   172 file /home/chase/psi4conda/share/psi4/basis/6-311pgs.gbs 
    atoms 5      entry C          line   130 file /home/chase/psi4conda/share/psi4/basis/6-311pgs.gbs 
    atoms 7-9    entry H          line    47 file /home/chase/psi4conda/share/psi4/basis/6-311pgs.gbs 

   => WB97X-D: Empirical Dispersion <=

    Chai and Head-Gordon Dispersion Correction
    Chai, J.-D.; Head-Gordon, M. (2010), J. Chem. Phys., 132: 6615-6620

        s6 =       1.000000


         ---------------------------------------------------------
                                   SCF
               by Justin Turney, Rob Parrish, Andy Simmonett
                          and Daniel G. A. Smith
                              RKS Reference
                        2 Threads,    953 MiB Core
         ---------------------------------------------------------

  ==> Geometry <==

    Molecular point group: c1
    Full point group: C1

    Geometry (in Angstrom), charge = -1, multiplicity = 1:

       Center              X                  Y                   Z               Mass       
    ------------   -----------------  -----------------  -----------------  -----------------
         S           -0.375428598914     0.038332374679     0.184663821547    31.972071174400
         O           -0.940694598914    -0.906856625321    -0.762025178453    15.994914619570
         O            0.149634401086    -0.590466625321     1.386106821547    15.994914619570
         O            0.976072401086     0.653400374679    -0.597029178453    15.994914619570
         C            1.818143401086    -0.416852625321    -0.860863178453    12.000000000000
         O           -1.184310598914     1.212906374679     0.423930821547    15.994914619570
         H            2.857725401086    -0.070511625321    -0.839799178453     1.007825032230
         H            1.671768401086    -1.177035625321    -0.087834178453     1.007825032230
         H            1.591808401086    -0.861145625321    -1.837892178453     1.007825032230

  Running in c1 symmetry.

  Rotational constants: A =      0.17000  B =      0.09595  C =      0.09513 [cm^-1]
  Rotational constants: A =   5096.59189  B =   2876.48711  C =   2851.85610 [MHz]
  Nuclear repulsion =  363.483356198339891

  Charge       = -1
  Multiplicity = 1
  Electrons    = 58
  Nalpha       = 29
  Nbeta        = 29

  ==> Algorithm <==

  SCF Algorithm Type is DF.
  DIIS enabled.
  MOM disabled.
  Fractional occupation disabled.
  Guess Type is SAD.
  Energy threshold   = 1.00e-06
  Density threshold  = 1.00e-06
  Integral threshold = 1.00e-12

  ==> Primary Basis <==

  Basis Set: 6-311+G*
    Blend: 6-311+G*
    Number of shells: 73
    Number of basis functions: 149
    Number of Cartesian functions: 155
    Spherical Harmonics?: true
    Max angular momentum: 2

  ==> DFT Potential <==

   => LibXC <=

    Version 5.1.5
    S. Lehtola, C. Steigemann, M. J. Oliveira, and M. A. Marques, SoftwareX 7, 1 (2018) (10.1016/j.softx.2017.11.002)

   => Composite Functional: WB97X-D <= 

    wB97X-D Hyb-GGA Exchange-Correlation Functional

    J.-D. Chai and M. Head-Gordon, Phys. Chem. Chem. Phys. 10, 6615 (2008) (10.1039/B810189B)

    Deriv               =              1
    GGA                 =           TRUE
    Meta                =          FALSE

    Exchange Hybrid     =           TRUE
    MP2 Hybrid          =          FALSE

   => Exchange-Correlation Functionals <=

    1.0000   wB97X-D range-separated functional

   => Exact (HF) Exchange <=

    0.7780            HF,LR [omega = 0.2000]
    0.2220               HF 

   => LibXC Density Thresholds  <==

    XC_HYB_GGA_XC_WB97X_D:  1.00E-14 

   => Molecular Quadrature <=

    Radial Scheme          =       TREUTLER
    Pruning Scheme         =           NONE
    Nuclear Scheme         =       TREUTLER

    Blocking Scheme        =         OCTREE
    BS radius alpha        =              1
    Pruning alpha          =              1
    Radial Points          =             75
    Spherical Points       =            302
    Total Points           =         194196
    Total Blocks           =           1506
    Max Points             =            256
    Max Functions          =            148
    Weights Tolerance      =       1.00E-15

   => Loading Basis Set <=

    Name: (6-311+G* AUX)
    Role: JKFIT
    Keyword: DF_BASIS_SCF
    atoms 1      entry S          line   768 file /home/chase/psi4conda/share/psi4/basis/heavy-aug-cc-pvtz-jkfit.gbs 
    atoms 2-4, 6 entry O          line   324 file /home/chase/psi4conda/share/psi4/basis/heavy-aug-cc-pvtz-jkfit.gbs 
    atoms 5      entry C          line   200 file /home/chase/psi4conda/share/psi4/basis/heavy-aug-cc-pvtz-jkfit.gbs 
    atoms 7-9    entry H          line   116 file /home/chase/psi4conda/share/psi4/basis/heavy-aug-cc-pvtz-jkfit.gbs 

  ==> Integral Setup <==

  DFHelper Memory: AOs need 0.375 GiB; user supplied 0.375 GiB. Using in-core AOs.

  ==> MemDFJK: Density-Fitted J/K Matrices <==

    J tasked:                   Yes
    K tasked:                   Yes
    wK tasked:                  Yes
    Omega:                2.000E-01
    OpenMP threads:               2
    Memory [MiB]:               383
    Algorithm:                 Core
    Schwarz Cutoff:           1E-12
    Mask sparsity (%):       2.5494
    Fitting Condition:        1E-10

   => Auxiliary Basis Set <=

  Basis Set: (6-311+G* AUX)
    Blend: HEAVY-AUG-CC-PVTZ-JKFIT
    Number of shells: 222
    Number of basis functions: 756
    Number of Cartesian functions: 940
    Spherical Harmonics?: true
    Max angular momentum: 4

  Cached 50.0% of DFT collocation blocks in 0.297 [GiB].

  Minimum eigenvalue in the overlap matrix is 3.5971645059E-04.
  Reciprocal condition number of the overlap matrix is 3.6715561376E-05.
    Using symmetric orthogonalization.

  ==> Pre-Iterations <==

  SCF Guess: Superposition of Atomic Densities via on-the-fly atomic UHF (no occupation information).

   -------------------------
    Irrep   Nso     Nmo    
   -------------------------
     A        149     149 
   -------------------------
    Total     149     149
   -------------------------

  ==> Iterations <==

                           Total Energy        Delta E     RMS |[F,P]|

   @DF-RKS iter SAD:  -738.96179143374411   -7.38962e+02   0.00000e+00 
   @DF-RKS iter   1:  -738.52593209594932    4.35859e-01   7.82556e-03 DIIS/ADIIS
   @DF-RKS iter   2:  -738.45393486969999    7.19972e-02   8.80037e-03 DIIS/ADIIS
   @DF-RKS iter   3:  -738.99938337851211   -5.45449e-01   7.93117e-04 DIIS/ADIIS
   @DF-RKS iter   4:  -739.00330937984370   -3.92600e-03   2.72793e-04 DIIS/ADIIS
   @DF-RKS iter   5:  -739.00383922686308   -5.29847e-04   1.12937e-04 DIIS/ADIIS
   @DF-RKS iter   6:  -739.00393161436830   -9.23875e-05   2.44418e-05 DIIS
   @DF-RKS iter   7:  -739.00393714884956   -5.53448e-06   4.63218e-06 DIIS
   @DF-RKS iter   8:  -739.00393739204333   -2.43194e-07   1.95413e-06 DIIS
   @DF-RKS iter   9:  -739.00393742606173   -3.40184e-08   8.26063e-07 DIIS
  Energy and wave function converged.


  ==> Post-Iterations <==

   Electrons on quadrature grid:
      Ntotal   =   58.0000124133 ; deviation = 1.241e-05 

    Orbital Energies [Eh]
    ---------------------

    Doubly Occupied:                                                      

       1A    -89.062160     2A    -19.111390     3A    -19.044661  
       4A    -19.043569     5A    -19.043534     6A    -10.179697  
       7A     -8.074395     8A     -6.023684     9A     -6.021443  
      10A     -6.021276    11A     -1.087157    12A     -0.974014  
      13A     -0.919831    14A     -0.917919    15A     -0.647118  
      16A     -0.519188    17A     -0.440868    18A     -0.413222  
      19A     -0.407748    20A     -0.373347    21A     -0.353938  
      22A     -0.314575    23A     -0.257522    24A     -0.254867  
      25A     -0.243809    26A     -0.237615    27A     -0.208406  
      28A     -0.192592    29A     -0.166863  

    Virtual:                                                              

      30A      0.181598    31A      0.215935    32A      0.224093  
      33A      0.228729    34A      0.256120    35A      0.257749  
      36A      0.259928    37A      0.302118    38A      0.326587  
      39A      0.354621    40A      0.370774    41A      0.376887  
      42A      0.383033    43A      0.401290    44A      0.420139  
      45A      0.429818    46A      0.440801    47A      0.444624  
      48A      0.464838    49A      0.480659    50A      0.487741  
      51A      0.490406    52A      0.498379    53A      0.506910  
      54A      0.517418    55A      0.519396    56A      0.525439  
      57A      0.532764    58A      0.551086    59A      0.565924  
      60A      0.596760    61A      0.620533    62A      0.632288  
      63A      0.645592    64A      0.673016    65A      0.713053  
      66A      0.744085    67A      0.773444    68A      0.851493  
      69A      0.872327    70A      0.909071    71A      0.953883  
      72A      0.986163    73A      1.077394    74A      1.192330  
      75A      1.228797    76A      1.240351    77A      1.267805  
      78A      1.296116    79A      1.337263    80A      1.354923  
      81A      1.373934    82A      1.395112    83A      1.401405  
      84A      1.409341    85A      1.417516    86A      1.440336  
      87A      1.479069    88A      1.489523    89A      1.518263  
      90A      1.588692    91A      1.617359    92A      1.787631  
      93A      1.803620    94A      1.835460    95A      1.847263  
      96A      1.907370    97A      1.996962    98A      2.049397  
      99A      2.075251   100A      2.090555   101A      2.169082  
     102A      2.659946   103A      2.676691   104A      2.735128  
     105A      3.032787   106A      3.044725   107A      3.092262  
     108A      3.093843   109A      3.102757   110A      3.110513  
     111A      3.122120   112A      3.131700   113A      3.140606  
     114A      3.162973   115A      3.261298   116A      3.286885  
     117A      3.296181   118A      3.351702   119A      3.440510  
     120A      3.453936   121A      3.465613   122A      3.491927  
     123A      3.552634   124A      3.744223   125A      3.891261  
     126A      3.894374   127A      4.167838   128A      5.236535  
     129A      5.256563   130A      5.297700   131A      5.302309  
     132A      5.320377   133A      5.325606   134A      5.338070  
     135A      5.341201   136A      5.438540   137A      5.593949  
     138A      5.620463   139A      5.699790   140A      8.452304  
     141A     17.609170   142A     17.739677   143A     17.777160  
     144A     23.830389   145A     50.169945   146A     50.196485  
     147A     50.197619   148A     50.264484   149A    189.620200  

    Final Occupation by Irrep:
              A 
    DOCC [    29 ]

  @DF-RKS Final Energy:  -739.00393742606173

   => Energetics <=

    Nuclear Repulsion Energy =            363.4833561983398909
    One-Electron Energy =               -1751.2360616127011781
    Two-Electron Energy =                 696.4624666237006068
    DFT Exchange-Correlation Energy =     -47.7114750513705843
    Empirical Dispersion Energy =          -0.0022235840303529
    VV10 Nonlocal Energy =                  0.0000000000000000
    Total Energy =                       -739.0039374260617251

Computation Completed


Properties will be evaluated at   0.000000,   0.000000,   0.000000 [a0]

Properties computed using the SCF density matrix


 Multipole Moments:

 ------------------------------------------------------------------------------------
     Multipole            Electronic (a.u.)      Nuclear  (a.u.)        Total (a.u.)
 ------------------------------------------------------------------------------------

 L = 1.  Multiply by 2.5417464519 to convert [e a0] to [Debye]
 Dipole X            :         -4.4223284            5.7238252            1.3014969
 Dipole Y            :          1.6915889           -1.9740507           -0.2824618
 Dipole Z            :          2.0013171           -2.5855557           -0.5842386
 Magnitude           :                                                    1.4543086

 ------------------------------------------------------------------------------------

*** tstop() called on DESKTOP-26BCFJT at Thu Nov  3 12:59:39 2022
Module time:
	user time   =      34.09 seconds =       0.57 minutes
	system time =       1.06 seconds =       0.02 minutes
	total time  =         18 seconds =       0.30 minutes
Total time:
	user time   =      34.09 seconds =       0.57 minutes
	system time =       1.06 seconds =       0.02 minutes
	total time  =         18 seconds =       0.30 minutes


Properties will be evaluated at   0.000000,   0.000000,   0.000000 [a0]
OEProp: No title given, name of density matrix used for the following properties is 'SCF density'


  Wiberg Bond Indices using Orthogonal Lowdin Orbitals:

  Irrep: 1 Size: 9 x 9

                 1                   2                   3                   4                   5

    1     0.00000000000000     1.76757889212314     1.75703182714502     0.95338535109203     0.10922108462316
    2     1.76757889212314     0.00000000000000     0.19549115742001     0.15710364351616     0.07261044278035
    3     1.75703182714502     0.19549115742001     0.00000000000000     0.15281518624696     0.08099848328175
    4     0.95338535109203     0.15710364351616     0.15281518624696     0.00000000000000     1.37368314501679
    5     0.10922108462316     0.07261044278035     0.08099848328175     1.37368314501679     0.00000000000000
    6     1.80897531814896     0.18851880245904     0.18836440088885     0.15970792900230     0.02954429560734
    7     0.01296042119168     0.00291752628723     0.00113956302321     0.06009318792311     0.90719469277593
    8     0.03185639020213     0.00900824952177     0.02775273101509     0.04984667190254     0.86903654708128
    9     0.01283571124706     0.00805591690440     0.00133123439515     0.06214267031331     0.90180354980830

                 6                   7                   8                   9

    1     1.80897531814896     0.01296042119168     0.03185639020213     0.01283571124706
    2     0.18851880245904     0.00291752628723     0.00900824952177     0.00805591690440
    3     0.18836440088885     0.00113956302321     0.02775273101509     0.00133123439515
    4     0.15970792900230     0.06009318792311     0.04984667190254     0.06214267031331
    5     0.02954429560734     0.90719469277593     0.86903654708128     0.90180354980830
    6     0.00000000000000     0.00227827765379     0.00190788994708     0.00111327147709
    7     0.00227827765379     0.00000000000000     0.00995990011884     0.00914420966262
    8     0.00190788994708     0.00995990011884     0.00000000000000     0.00792477002455
    9     0.00111327147709     0.00914420966262     0.00792477002455     0.00000000000000



  Atomic Valences: 

 #  #
 Irrep: 1
      1:    6.453844995773182
      2:    2.401284631012106
      3:    2.404924583416038
      4:    2.968777785013211
      5:    4.344092240974907
      6:    2.380410185184462
      7:    1.005687778636417
      8:    1.007293149813288
      9:    1.004351333832486


    Psi4 stopped on: Thursday, 03 November 2022 12:59PM
    Psi4 wall time for execution: 0:00:18.15

*** Psi4 exiting successfully. Buy a developer a beer!
