2022-11-03:12:59:56,559 INFO     [psi4.driver.task_planner:266] PLANNING Atomic:  keywords={'FREEZE_CORE': 'TRUE', 'function_kwargs': {}}
2022-11-03:12:59:56,565 INFO     [psi4.driver.driver:499] Compute energy(): method=wb97x-d, basis=6-311+g*, molecule=default, nre=363.9075926675467
2022-11-03:13:00:11,950 INFO     [psi4.driver.driver:502] Return energy(): -739.0048262607708
o,
    A. Alenaizan, A. M. James, S. Lehtola, J. P. Misiewicz, M. Scheurer,
    R. A. Shaw, J. B. Schriber, Y. Xie, Z. L. Glick, D. A. Sirianni,
    J. S. O'Brien, J. M. Waldrop, A. Kumar, E. G. Hohenstein,
    B. P. Pritchard, B. R. Brooks, H. F. Schaefer III, A. Yu. Sokolov,
    K. Patkowski, A. E. DePrince III, U. Bozkaya, R. A. King,
    F. A. Evangelista, J. M. Turney, T. D. Crawford, C. D. Sherrill,
    J. Chem. Phys. 152(18) 184108 (2020). https://doi.org/10.1063/5.0006002

                            Additional Code Authors
    E. T. Seidl, C. L. Janssen, E. F. Valeev, M. L. Leininger,
    J. F. Gonthier, R. M. Richard, H. R. McAlexander, M. Saitow, X. Wang,
    P. Verma, M. H. Lechner, and A. Jiang

             Previous Authors, Complete List of Code Contributors,
                       and Citations for Specific Modules
    https://github.com/psi4/psi4/blob/master/codemeta.json
    https://github.com/psi4/psi4/graphs/contributors
    http://psicode.org/psi4manual/master/introduction.html#citing-psifour

    -----------------------------------------------------------------------


    Psi4 started on: Thursday, 03 November 2022 12:59PM

    Process ID: 9302
    Host:       DESKTOP-26BCFJT
    PSIDATADIR: /home/chase/psi4conda/share/psi4
    Memory:     500.0 MiB
    Threads:    1
    
  ==> Input File <==

--------------------------------------------------------------------------
molecule { 
-1 1
 S   -0.343962    0.178513   -0.059042
 O   -0.138514    0.915067   -1.294940
 O   -0.778416   -1.193080   -0.264926
 O    1.189957    0.037326    0.604166
 C    1.949798   -0.654289   -0.327541
 O   -1.082608    0.898144    0.954964
 H    1.495503   -1.632883   -0.518830
 H    1.969681   -0.098580   -1.271766
 H    2.964244   -0.775008    0.064980
}
memory 1GB
set_num_threads(2)
psi4_io.set_default_path("/home/chase/temp/Psi4-mso4")
set freeze_core True
E, wfn = energy('wb97x-d/6-311+G*',return_wfn=True)
oeprop(wfn,"WIBERG_LOWDIN_INDICES")
clean()
--------------------------------------------------------------------------

  Memory set to 953.674 MiB by Python driver.
  Threads set to 2 by Python driver.

Scratch directory: /home/chase/temp/Psi4-mso4/

*** tstart() called on DESKTOP-26BCFJT
*** at Thu Nov  3 12:59:56 2022

   => Loading Basis Set <=

    Name: 6-311+G*
    Role: ORBITAL
    Keyword: BASIS
    atoms 1      entry S          line   430 file /home/chase/psi4conda/share/psi4/basis/6-311pgs.gbs 
    atoms 2-4, 6 entry O          line   172 file /home/chase/psi4conda/share/psi4/basis/6-311pgs.gbs 
    atoms 5      entry C          line   130 file /home/chase/psi4conda/share/psi4/basis/6-311pgs.gbs 
    atoms 7-9    entry H          line    47 file /home/chase/psi4conda/share/psi4/basis/6-311pgs.gbs 

   => WB97X-D: Empirical Dispersion <=

    Chai and Head-Gordon Dispersion Correction
    Chai, J.-D.; Head-Gordon, M. (2010), J. Chem. Phys., 132: 6615-6620

        s6 =       1.000000


         ---------------------------------------------------------
                                   SCF
               by Justin Turney, Rob Parrish, Andy Simmonett
                          and Daniel G. A. Smith
                              RKS Reference
                        2 Threads,    953 MiB Core
         ---------------------------------------------------------

  ==> Geometry <==

    Molecular point group: c1
    Full point group: C1

    Geometry (in Angstrom), charge = -1, multiplicity = 1:

       Center              X                  Y                   Z               Mass       
    ------------   -----------------  -----------------  -----------------  -----------------
         S           -0.397405992077     0.125835947325     0.009163130158    31.972071174400
         O           -0.191957992077     0.862389947325    -1.226734869842    15.994914619570
         O           -0.831859992077    -1.245757052675    -0.196720869842    15.994914619570
         O            1.136513007923    -0.015351052675     0.672371130158    15.994914619570
         C            1.896354007923    -0.706966052675    -0.259335869842    12.000000000000
         O           -1.136051992077     0.845466947325     1.023169130158    15.994914619570
         H            1.442059007923    -1.685560052675    -0.450624869842     1.007825032230
         H            1.916237007923    -0.151257052675    -1.203560869842     1.007825032230
         H            2.910800007923    -0.827685052675     0.133185130158     1.007825032230

  Running in c1 symmetry.

  Rotational constants: A =      0.17007  B =      0.09652  C =      0.09578 [cm^-1]
  Rotational constants: A =   5098.54935  B =   2893.51967  C =   2871.37912 [MHz]
  Nuclear repulsion =  363.907592667546680

  Charge       = -1
  Multiplicity = 1
  Electrons    = 58
  Nalpha       = 29
  Nbeta        = 29

  ==> Algorithm <==

  SCF Algorithm Type is DF.
  DIIS enabled.
  MOM disabled.
  Fractional occupation disabled.
  Guess Type is SAD.
  Energy threshold   = 1.00e-06
  Density threshold  = 1.00e-06
  Integral threshold = 1.00e-12

  ==> Primary Basis <==

  Basis Set: 6-311+G*
    Blend: 6-311+G*
    Number of shells: 73
    Number of basis functions: 149
    Number of Cartesian functions: 155
    Spherical Harmonics?: true
    Max angular momentum: 2

  ==> DFT Potential <==

   => LibXC <=

    Version 5.1.5
    S. Lehtola, C. Steigemann, M. J. Oliveira, and M. A. Marques, SoftwareX 7, 1 (2018) (10.1016/j.softx.2017.11.002)

   => Composite Functional: WB97X-D <= 

    wB97X-D Hyb-GGA Exchange-Correlation Functional

    J.-D. Chai and M. Head-Gordon, Phys. Chem. Chem. Phys. 10, 6615 (2008) (10.1039/B810189B)

    Deriv               =              1
    GGA                 =           TRUE
    Meta                =          FALSE

    Exchange Hybrid     =           TRUE
    MP2 Hybrid          =          FALSE

   => Exchange-Correlation Functionals <=

    1.0000   wB97X-D range-separated functional

   => Exact (HF) Exchange <=

    0.7780            HF,LR [omega = 0.2000]
    0.2220               HF 

   => LibXC Density Thresholds  <==

    XC_HYB_GGA_XC_WB97X_D:  1.00E-14 

   => Molecular Quadrature <=

    Radial Scheme          =       TREUTLER
    Pruning Scheme         =           NONE
    Nuclear Scheme         =       TREUTLER

    Blocking Scheme        =         OCTREE
    BS radius alpha        =              1
    Pruning alpha          =              1
    Radial Points          =             75
    Spherical Points       =            302
    Total Points           =         194128
    Total Blocks           =           1478
    Max Points             =            256
    Max Functions          =            148
    Weights Tolerance      =       1.00E-15

   => Loading Basis Set <=

    Name: (6-311+G* AUX)
    Role: JKFIT
    Keyword: DF_BASIS_SCF
    atoms 1      entry S          line   768 file /home/chase/psi4conda/share/psi4/basis/heavy-aug-cc-pvtz-jkfit.gbs 
    atoms 2-4, 6 entry O          line   324 file /home/chase/psi4conda/share/psi4/basis/heavy-aug-cc-pvtz-jkfit.gbs 
    atoms 5      entry C          line   200 file /home/chase/psi4conda/share/psi4/basis/heavy-aug-cc-pvtz-jkfit.gbs 
    atoms 7-9    entry H          line   116 file /home/chase/psi4conda/share/psi4/basis/heavy-aug-cc-pvtz-jkfit.gbs 

  ==> Integral Setup <==

  DFHelper Memory: AOs need 0.375 GiB; user supplied 0.375 GiB. Using in-core AOs.

  ==> MemDFJK: Density-Fitted J/K Matrices <==

    J tasked:                   Yes
    K tasked:                   Yes
    wK tasked:                  Yes
    Omega:                2.000E-01
    OpenMP threads:               2
    Memory [MiB]:               384
    Algorithm:                 Core
    Schwarz Cutoff:           1E-12
    Mask sparsity (%):       2.4503
    Fitting Condition:        1E-10

   => Auxiliary Basis Set <=

  Basis Set: (6-311+G* AUX)
    Blend: HEAVY-AUG-CC-PVTZ-JKFIT
    Number of shells: 222
    Number of basis functions: 756
    Number of Cartesian functions: 940
    Spherical Harmonics?: true
    Max angular momentum: 4

  Cached 50.0% of DFT collocation blocks in 0.301 [GiB].

  Minimum eigenvalue in the overlap matrix is 3.4371577127E-04.
  Reciprocal condition number of the overlap matrix is 3.5021677735E-05.
    Using symmetric orthogonalization.

  ==> Pre-Iterations <==

  SCF Guess: Superposition of Atomic Densities via on-the-fly atomic UHF (no occupation information).

   -------------------------
    Irrep   Nso     Nmo    
   -------------------------
     A        149     149 
   -------------------------
    Total     149     149
   -------------------------

  ==> Iterations <==

                           Total Energy        Delta E     RMS |[F,P]|

   @DF-RKS iter SAD:  -738.96650597918176   -7.38967e+02   0.00000e+00 
   @DF-RKS iter   1:  -738.52833564425021    4.38170e-01   7.81534e-03 ADIIS/DIIS
   @DF-RKS iter   2:  -738.45754523480957    7.07904e-02   8.78165e-03 ADIIS/DIIS
   @DF-RKS iter   3:  -739.00023452930452   -5.42689e-01   7.95126e-04 ADIIS/DIIS
   @DF-RKS iter   4:  -739.00420274397868   -3.96821e-03   2.71618e-04 ADIIS/DIIS
   @DF-RKS iter   5:  -739.00472896433200   -5.26220e-04   1.12519e-04 ADIIS/DIIS
   @DF-RKS iter   6:  -739.00482034239656   -9.13781e-05   2.48170e-05 DIIS
   @DF-RKS iter   7:  -739.00482600079511   -5.65840e-06   4.44237e-06 DIIS
   @DF-RKS iter   8:  -739.00482623622759   -2.35432e-07   1.45219e-06 DIIS
   @DF-RKS iter   9:  -739.00482626077076   -2.45432e-08   3.23761e-07 DIIS
  Energy and wave function converged.


  ==> Post-Iterations <==

   Electrons on quadrature grid:
      Ntotal   =   57.9999886344 ; deviation = -1.137e-05 

    Orbital Energies [Eh]
    ---------------------

    Doubly Occupied:                                                      

       1A    -89.061725     2A    -19.112527     3A    -19.043606  
       4A    -19.043545     5A    -19.043051     6A    -10.178148  
       7A     -8.073931     8A     -6.023235     9A     -6.020968  
      10A     -6.020821    11A     -1.087155    12A     -0.974551  
      13A     -0.918954    14A     -0.917678    15A     -0.646270  
      16A     -0.518116    17A     -0.440975    18A     -0.411793  
      19A     -0.406772    20A     -0.373619    21A     -0.355249  
      22A     -0.316940    23A     -0.256308    24A     -0.253675  
      25A     -0.239940    26A     -0.236837    27A     -0.208384  
      28A     -0.195580    29A     -0.165869  

    Virtual:                                                              

      30A      0.180430    31A      0.217575    32A      0.223273  
      33A      0.229499    34A      0.256744    35A      0.259173  
      36A      0.260366    37A      0.300314    38A      0.337599  
      39A      0.348876    40A      0.360333    41A      0.374517  
      42A      0.384265    43A      0.414601    44A      0.419491  
      45A      0.422917    46A      0.443510    47A      0.446986  
      48A      0.467968    49A      0.476637    50A      0.487569  
      51A      0.496375    52A      0.501851    53A      0.502859  
      54A      0.516814    55A      0.519674    56A      0.523965  
      57A      0.532214    58A      0.550498    59A      0.567539  
      60A      0.609930    61A      0.611846    62A      0.633864  
      63A      0.647439    64A      0.684190    65A      0.695835  
      66A      0.728751    67A      0.785531    68A      0.861229  
      69A      0.861895    70A      0.912028    71A      0.954378  
      72A      0.998991    73A      1.082797    74A      1.206811  
      75A      1.227171    76A      1.245999    77A      1.266427  
      78A      1.293093    79A      1.334734    80A      1.339060  
      81A      1.374202    82A      1.393507    83A      1.401434  
      84A      1.413791    85A      1.416685    86A      1.438419  
      87A      1.475073    88A      1.485896    89A      1.532651  
      90A      1.596152    91A      1.629651    92A      1.776570  
      93A      1.801484    94A      1.841748    95A      1.844797  
      96A      1.897367    97A      1.981269    98A      2.057757  
      99A      2.084706   100A      2.085223   101A      2.172440  
     102A      2.670509   103A      2.672519   104A      2.737255  
     105A      3.033593   106A      3.039325   107A      3.093515  
     108A      3.095340   109A      3.102023   110A      3.111085  
     111A      3.124232   112A      3.127544   113A      3.155292  
     114A      3.172026   115A      3.223002   116A      3.288394  
     117A      3.319628   118A      3.342437   119A      3.449809  
     120A      3.457724   121A      3.458196   122A      3.511641  
     123A      3.538751   124A      3.743288   125A      3.890395  
     126A      3.893128   127A      4.174658   128A      5.232906  
     129A      5.259976   130A      5.294688   131A      5.295659  
     132A      5.318472   133A      5.325550   134A      5.337576  
     135A      5.337642   136A      5.440746   137A      5.592830  
     138A      5.621161   139A      5.698943   140A      8.455819  
     141A     17.609969   142A     17.740691   143A     17.778966  
     144A     23.845278   145A     50.167180   146A     50.197298  
     147A     50.200773   148A     50.260591   149A    189.625884  

    Final Occupation by Irrep:
              A 
    DOCC [    29 ]

  @DF-RKS Final Energy:  -739.00482626077076

   => Energetics <=

    Nuclear Repulsion Energy =            363.9075926675466803
    One-Electron Energy =               -1752.1063492546754787
    Two-Electron Energy =                 696.9084758917091449
    DFT Exchange-Correlation Energy =     -47.7123746755877818
    Empirical Dispersion Energy =          -0.0021708897633386
    VV10 Nonlocal Energy =                  0.0000000000000000
    Total Energy =                       -739.0048262607707557

Computation Completed


Properties will be evaluated at   0.000000,   0.000000,   0.000000 [a0]

Properties computed using the SCF density matrix


 Multipole Moments:

 ------------------------------------------------------------------------------------
     Multipole            Electronic (a.u.)      Nuclear  (a.u.)        Total (a.u.)
 ------------------------------------------------------------------------------------

 L = 1.  Multiply by 2.5417464519 to convert [e a0] to [Debye]
 Dipole X            :         -4.4893994            5.8616819            1.3722825
 Dipole Y            :          1.9920437           -2.4924222           -0.5003784
 Dipole Z            :          1.2613616           -1.4243425           -0.1629809
 Magnitude           :                                                    1.4697280

 ------------------------------------------------------------------------------------

*** tstop() called on DESKTOP-26BCFJT at Thu Nov  3 13:00:11 2022
Module time:
	user time   =      29.54 seconds =       0.49 minutes
	system time =       0.63 seconds =       0.01 minutes
	total time  =         15 seconds =       0.25 minutes
Total time:
	user time   =      29.54 seconds =       0.49 minutes
	system time =       0.63 seconds =       0.01 minutes
	total time  =         15 seconds =       0.25 minutes


Properties will be evaluated at   0.000000,   0.000000,   0.000000 [a0]
OEProp: No title given, name of density matrix used for the following properties is 'SCF density'


  Wiberg Bond Indices using Orthogonal Lowdin Orbitals:

  Irrep: 1 Size: 9 x 9

                 1                   2                   3                   4                   5

    1     0.00000000000000     1.76082823820955     1.76029063903920     0.95500323235013     0.11195418129204
    2     1.76082823820955     0.00000000000000     0.19546713821890     0.15454933213001     0.07877311001015
    3     1.76029063903920     0.19546713821890     0.00000000000000     0.15439413805343     0.07942128070457
    4     0.95500323235013     0.15454933213001     0.15439413805343     0.00000000000000     1.37497595753459
    5     0.11195418129204     0.07877311001015     0.07942128070457     1.37497595753459     0.00000000000000
    6     1.80963479416274     0.18864088026198     0.18862570484067     0.15892994967362     0.02984476318804
    7     0.02181398937678     0.00389495534705     0.02031554447490     0.05710789856574     0.88376777276298
    8     0.02166219343607     0.01995718688462     0.00389326291180     0.05724147529437     0.88412677211349
    9     0.01518350624684     0.00206468596373     0.00206471948027     0.05904483074916     0.90565727710601

                 6                   7                   8                   9

    1     1.80963479416274     0.02181398937678     0.02166219343607     0.01518350624684
    2     0.18864088026198     0.00389495534705     0.01995718688462     0.00206468596373
    3     0.18862570484067     0.02031554447490     0.00389326291180     0.00206471948027
    4     0.15892994967362     0.05710789856574     0.05724147529437     0.05904483074916
    5     0.02984476318804     0.88376777276298     0.88412677211349     0.90565727710601
    6     0.00000000000000     0.00128087622410     0.00128035024161     0.00280041973323
    7     0.00128087622410     0.00000000000000     0.00755515625695     0.00970174949870
    8     0.00128035024161     0.00755515625695     0.00000000000000     0.00968404423385
    9     0.00280041973323     0.00970174949870     0.00968404423385     0.00000000000000



  Atomic Valences: 

 #  #
 Irrep: 1
      1:    6.456370774113364
      2:    2.404175527025998
      3:    2.404472427723738
      4:    2.971246814351042
      5:    4.348521114711869
      6:    2.381037738325992
      7:    1.005437942507194
      8:    1.005400441372745
      9:    1.006201233011787


    Psi4 stopped on: Thursday, 03 November 2022 01:00PM
    Psi4 wall time for execution: 0:00:15.46

*** Psi4 exiting successfully. Buy a developer a beer!
