2022-11-03:12:59:56,69 INFO     [psi4.driver.task_planner:266] PLANNING Atomic:  keywords={'FREEZE_CORE': 'TRUE', 'function_kwargs': {}}
2022-11-03:12:59:56,74 INFO     [psi4.driver.driver:499] Compute energy(): method=wb97x-d, basis=6-311+g*, molecule=default, nre=363.48635052346765
2022-11-03:13:00:11,294 INFO     [psi4.driver.driver:502] Return energy(): -739.0038545012198
io,
    A. Alenaizan, A. M. James, S. Lehtola, J. P. Misiewicz, M. Scheurer,
    R. A. Shaw, J. B. Schriber, Y. Xie, Z. L. Glick, D. A. Sirianni,
    J. S. O'Brien, J. M. Waldrop, A. Kumar, E. G. Hohenstein,
    B. P. Pritchard, B. R. Brooks, H. F. Schaefer III, A. Yu. Sokolov,
    K. Patkowski, A. E. DePrince III, U. Bozkaya, R. A. King,
    F. A. Evangelista, J. M. Turney, T. D. Crawford, C. D. Sherrill,
    J. Chem. Phys. 152(18) 184108 (2020). https://doi.org/10.1063/5.0006002

                            Additional Code Authors
    E. T. Seidl, C. L. Janssen, E. F. Valeev, M. L. Leininger,
    J. F. Gonthier, R. M. Richard, H. R. McAlexander, M. Saitow, X. Wang,
    P. Verma, M. H. Lechner, and A. Jiang

             Previous Authors, Complete List of Code Contributors,
                       and Citations for Specific Modules
    https://github.com/psi4/psi4/blob/master/codemeta.json
    https://github.com/psi4/psi4/graphs/contributors
    http://psicode.org/psi4manual/master/introduction.html#citing-psifour

    -----------------------------------------------------------------------


    Psi4 started on: Thursday, 03 November 2022 12:59PM

    Process ID: 9299
    Host:       DESKTOP-26BCFJT
    PSIDATADIR: /home/chase/psi4conda/share/psi4
    Memory:     500.0 MiB
    Threads:    1
    
  ==> Input File <==

--------------------------------------------------------------------------
molecule { 
-1 1
 S   -0.364092    0.142209   -0.035283
 O   -0.286594    0.714969   -1.367927
 O   -0.736376   -1.263700   -0.031605
 O    1.219101    0.163709    0.520102
 C    1.969783   -0.605788   -0.356745
 O   -1.066944    0.953816    0.933239
 H    1.325339   -1.375831   -0.789948
 H    2.364966    0.012386   -1.173489
 H    2.800501   -1.066564    0.188720
}
memory 1GB
set_num_threads(2)
psi4_io.set_default_path("/home/chase/temp/Psi4-mso4")
set freeze_core True
E, wfn = energy('wb97x-d/6-311+G*',return_wfn=True)
oeprop(wfn,"WIBERG_LOWDIN_INDICES")
clean()
--------------------------------------------------------------------------

  Memory set to 953.674 MiB by Python driver.
  Threads set to 2 by Python driver.

Scratch directory: /home/chase/temp/Psi4-mso4/

*** tstart() called on DESKTOP-26BCFJT
*** at Thu Nov  3 12:59:56 2022

   => Loading Basis Set <=

    Name: 6-311+G*
    Role: ORBITAL
    Keyword: BASIS
    atoms 1      entry S          line   430 file /home/chase/psi4conda/share/psi4/basis/6-311pgs.gbs 
    atoms 2-4, 6 entry O          line   172 file /home/chase/psi4conda/share/psi4/basis/6-311pgs.gbs 
    atoms 5      entry C          line   130 file /home/chase/psi4conda/share/psi4/basis/6-311pgs.gbs 
    atoms 7-9    entry H          line    47 file /home/chase/psi4conda/share/psi4/basis/6-311pgs.gbs 

   => WB97X-D: Empirical Dispersion <=

    Chai and Head-Gordon Dispersion Correction
    Chai, J.-D.; Head-Gordon, M. (2010), J. Chem. Phys., 132: 6615-6620

        s6 =       1.000000


         ---------------------------------------------------------
                                   SCF
               by Justin Turney, Rob Parrish, Andy Simmonett
                          and Daniel G. A. Smith
                              RKS Reference
                        2 Threads,    953 MiB Core
         ---------------------------------------------------------

  ==> Geometry <==

    Molecular point group: c1
    Full point group: C1

    Geometry (in Angstrom), charge = -1, multiplicity = 1:

       Center              X                  Y                   Z               Mass       
    ------------   -----------------  -----------------  -----------------  -----------------
         S           -0.405629547544     0.106831296973     0.021819345146    31.972071174400
         O           -0.328131547544     0.679591296973    -1.310824654854    15.994914619570
         O           -0.777913547544    -1.299077703027     0.025497345146    15.994914619570
         O            1.177563452456     0.128331296973     0.577204345146    15.994914619570
         C            1.928245452456    -0.641165703027    -0.299642654854    12.000000000000
         O           -1.108481547544     0.918438296973     0.990341345146    15.994914619570
         H            1.283801452456    -1.411208703027    -0.732845654854     1.007825032230
         H            2.323428452456    -0.022991703027    -1.116386654854     1.007825032230
         H            2.758963452456    -1.101941703027     0.245822345146     1.007825032230

  Running in c1 symmetry.

  Rotational constants: A =      0.16997  B =      0.09598  C =      0.09513 [cm^-1]
  Rotational constants: A =   5095.55348  B =   2877.41942  C =   2851.91099 [MHz]
  Nuclear repulsion =  363.486350523467593

  Charge       = -1
  Multiplicity = 1
  Electrons    = 58
  Nalpha       = 29
  Nbeta        = 29

  ==> Algorithm <==

  SCF Algorithm Type is DF.
  DIIS enabled.
  MOM disabled.
  Fractional occupation disabled.
  Guess Type is SAD.
  Energy threshold   = 1.00e-06
  Density threshold  = 1.00e-06
  Integral threshold = 1.00e-12

  ==> Primary Basis <==

  Basis Set: 6-311+G*
    Blend: 6-311+G*
    Number of shells: 73
    Number of basis functions: 149
    Number of Cartesian functions: 155
    Spherical Harmonics?: true
    Max angular momentum: 2

  ==> DFT Potential <==

   => LibXC <=

    Version 5.1.5
    S. Lehtola, C. Steigemann, M. J. Oliveira, and M. A. Marques, SoftwareX 7, 1 (2018) (10.1016/j.softx.2017.11.002)

   => Composite Functional: WB97X-D <= 

    wB97X-D Hyb-GGA Exchange-Correlation Functional

    J.-D. Chai and M. Head-Gordon, Phys. Chem. Chem. Phys. 10, 6615 (2008) (10.1039/B810189B)

    Deriv               =              1
    GGA                 =           TRUE
    Meta                =          FALSE

    Exchange Hybrid     =           TRUE
    MP2 Hybrid          =          FALSE

   => Exchange-Correlation Functionals <=

    1.0000   wB97X-D range-separated functional

   => Exact (HF) Exchange <=

    0.7780            HF,LR [omega = 0.2000]
    0.2220               HF 

   => LibXC Density Thresholds  <==

    XC_HYB_GGA_XC_WB97X_D:  1.00E-14 

   => Molecular Quadrature <=

    Radial Scheme          =       TREUTLER
    Pruning Scheme         =           NONE
    Nuclear Scheme         =       TREUTLER

    Blocking Scheme        =         OCTREE
    BS radius alpha        =              1
    Pruning alpha          =              1
    Radial Points          =             75
    Spherical Points       =            302
    Total Points           =         194204
    Total Blocks           =           1482
    Max Points             =            256
    Max Functions          =            148
    Weights Tolerance      =       1.00E-15

   => Loading Basis Set <=

    Name: (6-311+G* AUX)
    Role: JKFIT
    Keyword: DF_BASIS_SCF
    atoms 1      entry S          line   768 file /home/chase/psi4conda/share/psi4/basis/heavy-aug-cc-pvtz-jkfit.gbs 
    atoms 2-4, 6 entry O          line   324 file /home/chase/psi4conda/share/psi4/basis/heavy-aug-cc-pvtz-jkfit.gbs 
    atoms 5      entry C          line   200 file /home/chase/psi4conda/share/psi4/basis/heavy-aug-cc-pvtz-jkfit.gbs 
    atoms 7-9    entry H          line   116 file /home/chase/psi4conda/share/psi4/basis/heavy-aug-cc-pvtz-jkfit.gbs 

  ==> Integral Setup <==

  DFHelper Memory: AOs need 0.374 GiB; user supplied 0.374 GiB. Using in-core AOs.

  ==> MemDFJK: Density-Fitted J/K Matrices <==

    J tasked:                   Yes
    K tasked:                   Yes
    wK tasked:                  Yes
    Omega:                2.000E-01
    OpenMP threads:               2
    Memory [MiB]:               383
    Algorithm:                 Core
    Schwarz Cutoff:           1E-12
    Mask sparsity (%):       2.6125
    Fitting Condition:        1E-10

   => Auxiliary Basis Set <=

  Basis Set: (6-311+G* AUX)
    Blend: HEAVY-AUG-CC-PVTZ-JKFIT
    Number of shells: 222
    Number of basis functions: 756
    Number of Cartesian functions: 940
    Spherical Harmonics?: true
    Max angular momentum: 4

  Cached 50.0% of DFT collocation blocks in 0.307 [GiB].

  Minimum eigenvalue in the overlap matrix is 3.5855133939E-04.
  Reciprocal condition number of the overlap matrix is 3.6589288162E-05.
    Using symmetric orthogonalization.

  ==> Pre-Iterations <==

  SCF Guess: Superposition of Atomic Densities via on-the-fly atomic UHF (no occupation information).

   -------------------------
    Irrep   Nso     Nmo    
   -------------------------
     A        149     149 
   -------------------------
    Total     149     149
   -------------------------

  ==> Iterations <==

                           Total Energy        Delta E     RMS |[F,P]|

   @DF-RKS iter SAD:  -738.96159956861470   -7.38962e+02   0.00000e+00 
   @DF-RKS iter   1:  -738.52582143802260    4.35778e-01   7.82568e-03 ADIIS/DIIS
   @DF-RKS iter   2:  -738.45364596448974    7.21755e-02   8.80188e-03 ADIIS/DIIS
   @DF-RKS iter   3:  -738.99929888655186   -5.45653e-01   7.93220e-04 ADIIS/DIIS
   @DF-RKS iter   4:  -739.00322626359207   -3.92738e-03   2.72812e-04 ADIIS/DIIS
   @DF-RKS iter   5:  -739.00375619650572   -5.29933e-04   1.12992e-04 ADIIS/DIIS
   @DF-RKS iter   6:  -739.00384868522531   -9.24887e-05   2.44409e-05 DIIS
   @DF-RKS iter   7:  -739.00385422339787   -5.53817e-06   4.62961e-06 DIIS
   @DF-RKS iter   8:  -739.00385446738426   -2.43986e-07   1.94308e-06 DIIS
   @DF-RKS iter   9:  -739.00385450121985   -3.38356e-08   8.22289e-07 DIIS
  Energy and wave function converged.


  ==> Post-Iterations <==

   Electrons on quadrature grid:
      Ntotal   =   58.0000115799 ; deviation = 1.158e-05 

    Orbital Energies [Eh]
    ---------------------

    Doubly Occupied:                                                      

       1A    -89.062221     2A    -19.111428     3A    -19.044648  
       4A    -19.043638     5A    -19.043536     6A    -10.179742  
       7A     -8.074447     8A     -6.023737     9A     -6.021497  
      10A     -6.021325    11A     -1.087152    12A     -0.974037  
      13A     -0.919892    14A     -0.917789    15A     -0.647137  
      16A     -0.519298    17A     -0.441052    18A     -0.413546  
      19A     -0.407046    20A     -0.373069    21A     -0.354160  
      22A     -0.315163    23A     -0.257539    24A     -0.254822  
      25A     -0.243493    26A     -0.237730    27A     -0.208459  
      28A     -0.192483    29A     -0.166872  

    Virtual:                                                              

      30A      0.181530    31A      0.215821    32A      0.224268  
      33A      0.228673    34A      0.256073    35A      0.257762  
      36A      0.259913    37A      0.302179    38A      0.326606  
      39A      0.354925    40A      0.370092    41A      0.376799  
      42A      0.382939    43A      0.401293    44A      0.420131  
      45A      0.429876    46A      0.440926    47A      0.444617  
      48A      0.464756    49A      0.480605    50A      0.487351  
      51A      0.490382    52A      0.498293    53A      0.507016  
      54A      0.517475    55A      0.519398    56A      0.525419  
      57A      0.532714    58A      0.551048    59A      0.566346  
      60A      0.596493    61A      0.620683    62A      0.632292  
      63A      0.645461    64A      0.672934    65A      0.713622  
      66A      0.743002    67A      0.774191    68A      0.851611  
      69A      0.871890    70A      0.909356    71A      0.953804  
      72A      0.986382    73A      1.077570    74A      1.191577  
      75A      1.228917    76A      1.240201    77A      1.268192  
      78A      1.296302    79A      1.337514    80A      1.354813  
      81A      1.373998    82A      1.394891    83A      1.401288  
      84A      1.409183    85A      1.417437    86A      1.440324  
      87A      1.478981    88A      1.489567    89A      1.518206  
      90A      1.589499    91A      1.616515    92A      1.787484  
      93A      1.803539    94A      1.835517    95A      1.847017  
      96A      1.907567    97A      1.997186    98A      2.049351  
      99A      2.075029   100A      2.090779   101A      2.169220  
     102A      2.659148   103A      2.677690   104A      2.735982  
     105A      3.032835   106A      3.044744   107A      3.092337  
     108A      3.093808   109A      3.102728   110A      3.110571  
     111A      3.122134   112A      3.131739   113A      3.140536  
     114A      3.163049   115A      3.260376   116A      3.286963  
     117A      3.295511   118A      3.352253   119A      3.440433  
     120A      3.453774   121A      3.465852   122A      3.492061  
     123A      3.552996   124A      3.744139   125A      3.891150  
     126A      3.894177   127A      4.167593   128A      5.236375  
     129A      5.256760   130A      5.297476   131A      5.302512  
     132A      5.320272   133A      5.325561   134A      5.338106  
     135A      5.341309   136A      5.438587   137A      5.593593  
     138A      5.620510   139A      5.699485   140A      8.452247  
     141A     17.609170   142A     17.739089   143A     17.777436  
     144A     23.830050   145A     50.170069   146A     50.196429  
     147A     50.197528   148A     50.264813   149A    189.620117  

    Final Occupation by Irrep:
              A 
    DOCC [    29 ]

  @DF-RKS Final Energy:  -739.00385450121985

   => Energetics <=

    Nuclear Repulsion Energy =            363.4863505234675927
    One-Electron Energy =               -1751.2408877751947784
    Two-Electron Energy =                 696.4642154836271857
    DFT Exchange-Correlation Energy =     -47.7113100850246070
    Empirical Dispersion Energy =          -0.0022226480952414
    VV10 Nonlocal Energy =                  0.0000000000000000
    Total Energy =                       -739.0038545012198483

Computation Completed


Properties will be evaluated at   0.000000,   0.000000,   0.000000 [a0]

Properties computed using the SCF density matrix


 Multipole Moments:

 ------------------------------------------------------------------------------------
     Multipole            Electronic (a.u.)      Nuclear  (a.u.)        Total (a.u.)
 ------------------------------------------------------------------------------------

 L = 1.  Multiply by 2.5417464519 to convert [e a0] to [Debye]
 Dipole X            :         -4.5895605            5.9524252            1.3628648
 Dipole Y            :          1.9010016           -2.3726836           -0.4716820
 Dipole Z            :          1.3139783           -1.5012161           -0.1872377
 Magnitude           :                                                    1.4542841

 ------------------------------------------------------------------------------------

*** tstop() called on DESKTOP-26BCFJT at Thu Nov  3 13:00:11 2022
Module time:
	user time   =      29.61 seconds =       0.49 minutes
	system time =       0.41 seconds =       0.01 minutes
	total time  =         15 seconds =       0.25 minutes
Total time:
	user time   =      29.61 seconds =       0.49 minutes
	system time =       0.41 seconds =       0.01 minutes
	total time  =         15 seconds =       0.25 minutes


Properties will be evaluated at   0.000000,   0.000000,   0.000000 [a0]
OEProp: No title given, name of density matrix used for the following properties is 'SCF density'


  Wiberg Bond Indices using Orthogonal Lowdin Orbitals:

  Irrep: 1 Size: 9 x 9

                 1                   2                   3                   4                   5

    1     0.00000000000000     1.76698234960940     1.75672950331636     0.95371806930276     0.10925459519063
    2     1.76698234960940     0.00000000000000     0.19557964856206     0.15705344119490     0.07278659848252
    3     1.75672950331636     0.19557964856206     0.00000000000000     0.15276026021132     0.08095130349790
    4     0.95371806930276     0.15705344119490     0.15276026021132     0.00000000000000     1.37336091702736
    5     0.10925459519063     0.07278659848252     0.08095130349790     1.37336091702736     0.00000000000000
    6     1.80933945674645     0.18843670180464     0.18835410848801     0.15979258482755     0.02955412734358
    7     0.03191246657498     0.00908906818111     0.02765839679620     0.04987025738395     0.86888514138176
    8     0.01281180125457     0.00807000527716     0.00133369133694     0.06211128708045     0.90207341890798
    9     0.01295157640135     0.00291351012622     0.00111883587894     0.06015146205222     0.90719322706740

                 6                   7                   8                   9

    1     1.80933945674645     0.03191246657498     0.01281180125457     0.01295157640135
    2     0.18843670180464     0.00908906818111     0.00807000527716     0.00291351012622
    3     0.18835410848801     0.02765839679620     0.00133369133694     0.00111883587894
    4     0.15979258482755     0.04987025738395     0.06211128708045     0.06015146205222
    5     0.02955412734358     0.86888514138176     0.90207341890798     0.90719322706740
    6     0.00000000000000     0.00190931294372     0.00111376920727     0.00227302838765
    7     0.00190931294372     0.00000000000000     0.00789396837647     0.01000017258938
    8     0.00111376920727     0.00789396837647     0.00000000000000     0.00909569241699
    9     0.00227302838765     0.01000017258938     0.00909569241699     0.00000000000000



  Atomic Valences: 

 #  #
 Irrep: 1
      1:    6.453699818396497
      2:    2.400911323238014
      3:    2.404485748087745
      4:    2.968818279080507
      5:    4.344059328899128
      6:    2.380773089748873
      7:    1.007218784227576
      8:    1.004503633857851
      9:    1.005697504920137


    Psi4 stopped on: Thursday, 03 November 2022 01:00PM
    Psi4 wall time for execution: 0:00:15.31

*** Psi4 exiting successfully. Buy a developer a beer!
