2022-11-03:13:01:09,292 INFO     [psi4.driver.task_planner:266] PLANNING Atomic:  keywords={'FREEZE_CORE': 'TRUE', 'function_kwargs': {}}
2022-11-03:13:01:09,299 INFO     [psi4.driver.driver:499] Compute energy(): method=wb97x-d, basis=6-311+g*, molecule=default, nre=362.3949141148732
2022-11-03:13:01:23,977 INFO     [psi4.driver.driver:502] Return energy(): -739.004536256571
io,
    A. Alenaizan, A. M. James, S. Lehtola, J. P. Misiewicz, M. Scheurer,
    R. A. Shaw, J. B. Schriber, Y. Xie, Z. L. Glick, D. A. Sirianni,
    J. S. O'Brien, J. M. Waldrop, A. Kumar, E. G. Hohenstein,
    B. P. Pritchard, B. R. Brooks, H. F. Schaefer III, A. Yu. Sokolov,
    K. Patkowski, A. E. DePrince III, U. Bozkaya, R. A. King,
    F. A. Evangelista, J. M. Turney, T. D. Crawford, C. D. Sherrill,
    J. Chem. Phys. 152(18) 184108 (2020). https://doi.org/10.1063/5.0006002

                            Additional Code Authors
    E. T. Seidl, C. L. Janssen, E. F. Valeev, M. L. Leininger,
    J. F. Gonthier, R. M. Richard, H. R. McAlexander, M. Saitow, X. Wang,
    P. Verma, M. H. Lechner, and A. Jiang

             Previous Authors, Complete List of Code Contributors,
                       and Citations for Specific Modules
    https://github.com/psi4/psi4/blob/master/codemeta.json
    https://github.com/psi4/psi4/graphs/contributors
    http://psicode.org/psi4manual/master/introduction.html#citing-psifour

    -----------------------------------------------------------------------


    Psi4 started on: Thursday, 03 November 2022 01:01PM

    Process ID: 9354
    Host:       DESKTOP-26BCFJT
    PSIDATADIR: /home/chase/psi4conda/share/psi4
    Memory:     500.0 MiB
    Threads:    1
    
  ==> Input File <==

--------------------------------------------------------------------------
molecule { 
-1 1
 S   -0.441450   -0.022613   -0.290209
 O   -1.163714    1.162404   -0.702213
 O   -0.952238   -1.269963   -0.827426
 O    1.059277    0.168860   -1.026537
 C    2.028207   -0.446449   -0.253762
 O   -0.162500   -0.071145    1.136338
 H    1.818951   -1.520658   -0.167275
 H    3.001098   -0.301352   -0.736989
 H    2.038055   -0.023880    0.755140
}
memory 1GB
set_num_threads(2)
psi4_io.set_default_path("/home/chase/temp/Psi4-mso4")
set freeze_core True
E, wfn = energy('wb97x-d/6-311+G*',return_wfn=True)
oeprop(wfn,"WIBERG_LOWDIN_INDICES")
clean()
--------------------------------------------------------------------------

  Memory set to 953.674 MiB by Python driver.
  Threads set to 2 by Python driver.

Scratch directory: /home/chase/temp/Psi4-mso4/

*** tstart() called on DESKTOP-26BCFJT
*** at Thu Nov  3 13:01:09 2022

   => Loading Basis Set <=

    Name: 6-311+G*
    Role: ORBITAL
    Keyword: BASIS
    atoms 1      entry S          line   430 file /home/chase/psi4conda/share/psi4/basis/6-311pgs.gbs 
    atoms 2-4, 6 entry O          line   172 file /home/chase/psi4conda/share/psi4/basis/6-311pgs.gbs 
    atoms 5      entry C          line   130 file /home/chase/psi4conda/share/psi4/basis/6-311pgs.gbs 
    atoms 7-9    entry H          line    47 file /home/chase/psi4conda/share/psi4/basis/6-311pgs.gbs 

   => WB97X-D: Empirical Dispersion <=

    Chai and Head-Gordon Dispersion Correction
    Chai, J.-D.; Head-Gordon, M. (2010), J. Chem. Phys., 132: 6615-6620

        s6 =       1.000000


         ---------------------------------------------------------
                                   SCF
               by Justin Turney, Rob Parrish, Andy Simmonett
                          and Daniel G. A. Smith
                              RKS Reference
                        2 Threads,    953 MiB Core
         ---------------------------------------------------------

  ==> Geometry <==

    Molecular point group: c1
    Full point group: C1

    Geometry (in Angstrom), charge = -1, multiplicity = 1:

       Center              X                  Y                   Z               Mass       
    ------------   -----------------  -----------------  -----------------  -----------------
         S           -0.420144177931     0.050359701893     0.026836644265    31.972071174400
         O           -1.142408177931     1.235376701893    -0.385167355735    15.994914619570
         O           -0.930932177931    -1.196990298107    -0.510380355735    15.994914619570
         O            1.080582822069     0.241832701893    -0.709491355735    15.994914619570
         C            2.049512822069    -0.373476298107     0.063283644265    12.000000000000
         O           -0.141194177931     0.001827701893     1.453383644265    15.994914619570
         H            1.840256822069    -1.447685298107     0.149770644265     1.007825032230
         H            3.022403822069    -0.228379298107    -0.419943355735     1.007825032230
         H            2.059360822069     0.049092701893     1.072185644265     1.007825032230

  Running in c1 symmetry.

  Rotational constants: A =      0.16940  B =      0.09453  C =      0.09392 [cm^-1]
  Rotational constants: A =   5078.46700  B =   2833.80124  C =   2815.74613 [MHz]
  Nuclear repulsion =  362.394914114873188

  Charge       = -1
  Multiplicity = 1
  Electrons    = 58
  Nalpha       = 29
  Nbeta        = 29

  ==> Algorithm <==

  SCF Algorithm Type is DF.
  DIIS enabled.
  MOM disabled.
  Fractional occupation disabled.
  Guess Type is SAD.
  Energy threshold   = 1.00e-06
  Density threshold  = 1.00e-06
  Integral threshold = 1.00e-12

  ==> Primary Basis <==

  Basis Set: 6-311+G*
    Blend: 6-311+G*
    Number of shells: 73
    Number of basis functions: 149
    Number of Cartesian functions: 155
    Spherical Harmonics?: true
    Max angular momentum: 2

  ==> DFT Potential <==

   => LibXC <=

    Version 5.1.5
    S. Lehtola, C. Steigemann, M. J. Oliveira, and M. A. Marques, SoftwareX 7, 1 (2018) (10.1016/j.softx.2017.11.002)

   => Composite Functional: WB97X-D <= 

    wB97X-D Hyb-GGA Exchange-Correlation Functional

    J.-D. Chai and M. Head-Gordon, Phys. Chem. Chem. Phys. 10, 6615 (2008) (10.1039/B810189B)

    Deriv               =              1
    GGA                 =           TRUE
    Meta                =          FALSE

    Exchange Hybrid     =           TRUE
    MP2 Hybrid          =          FALSE

   => Exchange-Correlation Functionals <=

    1.0000   wB97X-D range-separated functional

   => Exact (HF) Exchange <=

    0.7780            HF,LR [omega = 0.2000]
    0.2220               HF 

   => LibXC Density Thresholds  <==

    XC_HYB_GGA_XC_WB97X_D:  1.00E-14 

   => Molecular Quadrature <=

    Radial Scheme          =       TREUTLER
    Pruning Scheme         =           NONE
    Nuclear Scheme         =       TREUTLER

    Blocking Scheme        =         OCTREE
    BS radius alpha        =              1
    Pruning alpha          =              1
    Radial Points          =             75
    Spherical Points       =            302
    Total Points           =         194341
    Total Blocks           =           1505
    Max Points             =            256
    Max Functions          =            147
    Weights Tolerance      =       1.00E-15

   => Loading Basis Set <=

    Name: (6-311+G* AUX)
    Role: JKFIT
    Keyword: DF_BASIS_SCF
    atoms 1      entry S          line   768 file /home/chase/psi4conda/share/psi4/basis/heavy-aug-cc-pvtz-jkfit.gbs 
    atoms 2-4, 6 entry O          line   324 file /home/chase/psi4conda/share/psi4/basis/heavy-aug-cc-pvtz-jkfit.gbs 
    atoms 5      entry C          line   200 file /home/chase/psi4conda/share/psi4/basis/heavy-aug-cc-pvtz-jkfit.gbs 
    atoms 7-9    entry H          line   116 file /home/chase/psi4conda/share/psi4/basis/heavy-aug-cc-pvtz-jkfit.gbs 

  ==> Integral Setup <==

  DFHelper Memory: AOs need 0.374 GiB; user supplied 0.374 GiB. Using in-core AOs.

  ==> MemDFJK: Density-Fitted J/K Matrices <==

    J tasked:                   Yes
    K tasked:                   Yes
    wK tasked:                  Yes
    Omega:                2.000E-01
    OpenMP threads:               2
    Memory [MiB]:               383
    Algorithm:                 Core
    Schwarz Cutoff:           1E-12
    Mask sparsity (%):       2.6846
    Fitting Condition:        1E-10

   => Auxiliary Basis Set <=

  Basis Set: (6-311+G* AUX)
    Blend: HEAVY-AUG-CC-PVTZ-JKFIT
    Number of shells: 222
    Number of basis functions: 756
    Number of Cartesian functions: 940
    Spherical Harmonics?: true
    Max angular momentum: 4

  Cached 50.0% of DFT collocation blocks in 0.303 [GiB].

  Minimum eigenvalue in the overlap matrix is 4.5684847518E-04.
  Reciprocal condition number of the overlap matrix is 4.7146709908E-05.
    Using symmetric orthogonalization.

  ==> Pre-Iterations <==

  SCF Guess: Superposition of Atomic Densities via on-the-fly atomic UHF (no occupation information).

   -------------------------
    Irrep   Nso     Nmo    
   -------------------------
     A        149     149 
   -------------------------
    Total     149     149
   -------------------------

  ==> Iterations <==

                           Total Energy        Delta E     RMS |[F,P]|

   @DF-RKS iter SAD:  -738.93446571640482   -7.38934e+02   0.00000e+00 
   @DF-RKS iter   1:  -738.52326479074907    4.11201e-01   7.84494e-03 ADIIS/DIIS
   @DF-RKS iter   2:  -738.44833272689687    7.49321e-02   8.84351e-03 ADIIS/DIIS
   @DF-RKS iter   3:  -738.99992446312808   -5.51592e-01   7.98265e-04 ADIIS/DIIS
   @DF-RKS iter   4:  -739.00388273390899   -3.95827e-03   2.78959e-04 ADIIS/DIIS
   @DF-RKS iter   5:  -739.00443650580451   -5.53772e-04   1.13774e-04 ADIIS/DIIS
   @DF-RKS iter   6:  -739.00453048703491   -9.39812e-05   2.42467e-05 DIIS
   @DF-RKS iter   7:  -739.00453598596232   -5.49893e-06   4.53815e-06 DIIS
   @DF-RKS iter   8:  -739.00453622953637   -2.43574e-07   1.59973e-06 DIIS
   @DF-RKS iter   9:  -739.00453625657099   -2.70346e-08   5.42501e-07 DIIS
  Energy and wave function converged.


  ==> Post-Iterations <==

   Electrons on quadrature grid:
      Ntotal   =   57.9999761358 ; deviation = -2.386e-05 

    Orbital Energies [Eh]
    ---------------------

    Doubly Occupied:                                                      

       1A    -89.061621     2A    -19.110897     3A    -19.045465  
       4A    -19.043197     5A    -19.041327     6A    -10.181474  
       7A     -8.073705     8A     -6.023034     9A     -6.020801  
      10A     -6.020537    11A     -1.085198    12A     -0.973933  
      13A     -0.918612    14A     -0.917097    15A     -0.648663  
      16A     -0.517398    17A     -0.441673    18A     -0.411863  
      19A     -0.407564    20A     -0.370133    21A     -0.358140  
      22A     -0.313277    23A     -0.259119    24A     -0.253523  
      25A     -0.241040    26A     -0.239248    27A     -0.207895  
      28A     -0.189531    29A     -0.166045  

    Virtual:                                                              

      30A      0.179300    31A      0.216902    32A      0.221956  
      33A      0.227892    34A      0.256246    35A      0.257321  
      36A      0.260122    37A      0.299191    38A      0.336221  
      39A      0.350895    40A      0.360055    41A      0.380062  
      42A      0.383669    43A      0.405381    44A      0.414076  
      45A      0.418382    46A      0.441385    47A      0.447076  
      48A      0.463710    49A      0.477209    50A      0.486864  
      51A      0.494382    52A      0.496202    53A      0.502235  
      54A      0.516689    55A      0.522559    56A      0.527555  
      57A      0.538513    58A      0.547360    59A      0.564678  
      60A      0.602632    61A      0.610907    62A      0.636978  
      63A      0.652236    64A      0.668933    65A      0.704589  
      66A      0.726350    67A      0.775034    68A      0.845740  
      69A      0.875068    70A      0.899557    71A      0.954390  
      72A      1.000198    73A      1.081275    74A      1.182150  
      75A      1.234900    76A      1.252040    77A      1.279522  
      78A      1.302384    79A      1.322503    80A      1.368634  
      81A      1.381291    82A      1.393023    83A      1.399088  
      84A      1.407193    85A      1.415890    86A      1.441156  
      87A      1.454587    88A      1.480697    89A      1.517006  
      90A      1.607055    91A      1.642581    92A      1.795563  
      93A      1.801892    94A      1.827302    95A      1.841784  
      96A      1.921407    97A      1.995143    98A      2.015219  
      99A      2.080951   100A      2.094222   101A      2.152269  
     102A      2.660212   103A      2.667081   104A      2.725303  
     105A      3.033134   106A      3.044145   107A      3.092368  
     108A      3.097301   109A      3.103233   110A      3.118314  
     111A      3.120738   112A      3.126738   113A      3.150905  
     114A      3.164347   115A      3.236701   116A      3.286320  
     117A      3.319624   118A      3.363451   119A      3.442866  
     120A      3.446817   121A      3.455827   122A      3.513858  
     123A      3.540555   124A      3.741864   125A      3.891124  
     126A      3.897353   127A      4.173196   128A      5.227970  
     129A      5.270534   130A      5.300068   131A      5.304440  
     132A      5.322398   133A      5.327389   134A      5.331509  
     135A      5.335136   136A      5.434621   137A      5.597976  
     138A      5.613906   139A      5.709367   140A      8.450203  
     141A     17.610712   142A     17.743958   143A     17.766257  
     144A     23.831068   145A     50.166304   146A     50.196445  
     147A     50.200700   148A     50.258431   149A    189.618853  

    Final Occupation by Irrep:
              A 
    DOCC [    29 ]

  @DF-RKS Final Energy:  -739.00453625657099

   => Energetics <=

    Nuclear Repulsion Energy =            362.3949141148731883
    One-Electron Energy =               -1749.0912003504852237
    Two-Electron Energy =                 695.4021610685738324
    DFT Exchange-Correlation Energy =     -47.7081763834737416
    Empirical Dispersion Energy =          -0.0022347060590695
    VV10 Nonlocal Energy =                  0.0000000000000000
    Total Energy =                       -739.0045362565709866

Computation Completed


Properties will be evaluated at   0.000000,   0.000000,   0.000000 [a0]

Properties computed using the SCF density matrix


 Multipole Moments:

 ------------------------------------------------------------------------------------
     Multipole            Electronic (a.u.)      Nuclear  (a.u.)        Total (a.u.)
 ------------------------------------------------------------------------------------

 L = 1.  Multiply by 2.5417464519 to convert [e a0] to [Debye]
 Dipole X            :         -4.9882434            6.4726481            1.4844047
 Dipole Y            :          1.2686503           -1.5225523           -0.2539020
 Dipole Z            :         -0.6933183            0.7518421            0.0585238
 Magnitude           :                                                    1.5070994

 ------------------------------------------------------------------------------------

*** tstop() called on DESKTOP-26BCFJT at Thu Nov  3 13:01:23 2022
Module time:
	user time   =      28.06 seconds =       0.47 minutes
	system time =       0.54 seconds =       0.01 minutes
	total time  =         14 seconds =       0.23 minutes
Total time:
	user time   =      28.06 seconds =       0.47 minutes
	system time =       0.54 seconds =       0.01 minutes
	total time  =         14 seconds =       0.23 minutes


Properties will be evaluated at   0.000000,   0.000000,   0.000000 [a0]
OEProp: No title given, name of density matrix used for the following properties is 'SCF density'


  Wiberg Bond Indices using Orthogonal Lowdin Orbitals:

  Irrep: 1 Size: 9 x 9

                 1                   2                   3                   4                   5

    1     0.00000000000000     1.80193601057601     1.79101573043850     0.94497335250198     0.10621398869472
    2     1.80193601057601     0.00000000000000     0.19029886131106     0.16206312573164     0.02935335025467
    3     1.79101573043850     0.19029886131106     0.00000000000000     0.15891628914085     0.04288069570292
    4     0.94497335250198     0.16206312573164     0.15891628914085     0.00000000000000     1.38045928465239
    5     0.10621398869472     0.02935335025467     0.04288069570292     1.38045928465239     0.00000000000000
    6     1.74855105904218     0.19108819909271     0.19473755396287     0.14827660171477     0.10364882324759
    7     0.02000040715051     0.00141768486484     0.00645324814781     0.05923745851994     0.89147414986007
    8     0.01553633355885     0.00278614385179     0.00174127942018     0.05904987600362     0.90511375571778
    9     0.02052719196027     0.00099496386443     0.00134108447978     0.05564432897823     0.88666735959426

                 6                   7                   8                   9

    1     1.74855105904218     0.02000040715051     0.01553633355885     0.02052719196027
    2     0.19108819909271     0.00141768486484     0.00278614385179     0.00099496386443
    3     0.19473755396287     0.00645324814781     0.00174127942018     0.00134108447978
    4     0.14827660171477     0.05923745851994     0.05904987600362     0.05564432897823
    5     0.10364882324759     0.89147414986007     0.90511375571778     0.88666735959426
    6     0.00000000000000     0.00877510648970     0.00339800133011     0.02366908783493
    7     0.00877510648970     0.00000000000000     0.00932475961299     0.00718229175553
    8     0.00339800133011     0.00932475961299     0.00000000000000     0.00981992123579
    9     0.02366908783493     0.00718229175553     0.00981992123579     0.00000000000000



  Atomic Valences: 

 #  #
 Irrep: 1
      1:    6.448754073923030
      2:    2.379938339547158
      3:    2.387384742603975
      4:    2.968620317243432
      5:    4.345811407724411
      6:    2.422144432714852
      7:    1.003865106401402
      8:    1.006770070731116
      9:    1.005846229703225


    Psi4 stopped on: Thursday, 03 November 2022 01:01PM
    Psi4 wall time for execution: 0:00:14.77

*** Psi4 exiting successfully. Buy a developer a beer!
