2022-11-03:12:59:39,859 INFO     [psi4.driver.task_planner:266] PLANNING Atomic:  keywords={'FREEZE_CORE': 'TRUE', 'function_kwargs': {}}
2022-11-03:12:59:39,864 INFO     [psi4.driver.driver:499] Compute energy(): method=wb97x-d, basis=6-311+g*, molecule=default, nre=363.08452189173505
2022-11-03:12:59:54,116 INFO     [psi4.driver.driver:502] Return energy(): -739.0025653047677
,
    A. Alenaizan, A. M. James, S. Lehtola, J. P. Misiewicz, M. Scheurer,
    R. A. Shaw, J. B. Schriber, Y. Xie, Z. L. Glick, D. A. Sirianni,
    J. S. O'Brien, J. M. Waldrop, A. Kumar, E. G. Hohenstein,
    B. P. Pritchard, B. R. Brooks, H. F. Schaefer III, A. Yu. Sokolov,
    K. Patkowski, A. E. DePrince III, U. Bozkaya, R. A. King,
    F. A. Evangelista, J. M. Turney, T. D. Crawford, C. D. Sherrill,
    J. Chem. Phys. 152(18) 184108 (2020). https://doi.org/10.1063/5.0006002

                            Additional Code Authors
    E. T. Seidl, C. L. Janssen, E. F. Valeev, M. L. Leininger,
    J. F. Gonthier, R. M. Richard, H. R. McAlexander, M. Saitow, X. Wang,
    P. Verma, M. H. Lechner, and A. Jiang

             Previous Authors, Complete List of Code Contributors,
                       and Citations for Specific Modules
    https://github.com/psi4/psi4/blob/master/codemeta.json
    https://github.com/psi4/psi4/graphs/contributors
    http://psicode.org/psi4manual/master/introduction.html#citing-psifour

    -----------------------------------------------------------------------


    Psi4 started on: Thursday, 03 November 2022 12:59PM

    Process ID: 9287
    Host:       DESKTOP-26BCFJT
    PSIDATADIR: /home/chase/psi4conda/share/psi4
    Memory:     500.0 MiB
    Threads:    1
    
  ==> Input File <==

--------------------------------------------------------------------------
molecule { 
-1 1
 S   -0.286280    0.028277    0.328495
 O   -0.863601   -1.064573   -0.435984
 O    0.350664   -0.406220    1.560409
 O    0.976475    0.590405   -0.625173
 C    1.868752   -0.454692   -0.813935
 O   -1.137759    1.189077    0.463275
 H    2.852058   -0.193751   -0.401131
 H    1.488932   -1.341952   -0.304042
 H    1.976444   -0.671363   -1.884848
}
memory 1GB
set_num_threads(2)
psi4_io.set_default_path("/home/chase/temp/Psi4-mso4")
set freeze_core True
E, wfn = energy('wb97x-d/6-311+G*',return_wfn=True)
oeprop(wfn,"WIBERG_LOWDIN_INDICES")
clean()
--------------------------------------------------------------------------

  Memory set to 953.674 MiB by Python driver.
  Threads set to 2 by Python driver.

Scratch directory: /home/chase/temp/Psi4-mso4/

*** tstart() called on DESKTOP-26BCFJT
*** at Thu Nov  3 12:59:39 2022

   => Loading Basis Set <=

    Name: 6-311+G*
    Role: ORBITAL
    Keyword: BASIS
    atoms 1      entry S          line   430 file /home/chase/psi4conda/share/psi4/basis/6-311pgs.gbs 
    atoms 2-4, 6 entry O          line   172 file /home/chase/psi4conda/share/psi4/basis/6-311pgs.gbs 
    atoms 5      entry C          line   130 file /home/chase/psi4conda/share/psi4/basis/6-311pgs.gbs 
    atoms 7-9    entry H          line    47 file /home/chase/psi4conda/share/psi4/basis/6-311pgs.gbs 

   => WB97X-D: Empirical Dispersion <=

    Chai and Head-Gordon Dispersion Correction
    Chai, J.-D.; Head-Gordon, M. (2010), J. Chem. Phys., 132: 6615-6620

        s6 =       1.000000


         ---------------------------------------------------------
                                   SCF
               by Justin Turney, Rob Parrish, Andy Simmonett
                          and Daniel G. A. Smith
                              RKS Reference
                        2 Threads,    953 MiB Core
         ---------------------------------------------------------

  ==> Geometry <==

    Molecular point group: c1
    Full point group: C1

    Geometry (in Angstrom), charge = -1, multiplicity = 1:

       Center              X                  Y                   Z               Mass       
    ------------   -----------------  -----------------  -----------------  -----------------
         S           -0.366070979247     0.044849277665     0.206659723938    31.972071174400
         O           -0.943391979247    -1.048000722335    -0.557819276062    15.994914619570
         O            0.270873020753    -0.389647722335     1.438573723938    15.994914619570
         O            0.896684020753     0.606977277665    -0.747008276062    15.994914619570
         C            1.788961020753    -0.438119722335    -0.935770276062    12.000000000000
         O           -1.217549979247     1.205649277665     0.341439723938    15.994914619570
         H            2.772267020753    -0.177178722335    -0.522966276062     1.007825032230
         H            1.409141020753    -1.325379722335    -0.425877276062     1.007825032230
         H            1.896653020753    -0.654790722335    -2.006683276062     1.007825032230

  Running in c1 symmetry.

  Rotational constants: A =      0.16984  B =      0.09550  C =      0.09455 [cm^-1]
  Rotational constants: A =   5091.66950  B =   2862.87434  C =   2834.45989 [MHz]
  Nuclear repulsion =  363.084521891734994

  Charge       = -1
  Multiplicity = 1
  Electrons    = 58
  Nalpha       = 29
  Nbeta        = 29

  ==> Algorithm <==

  SCF Algorithm Type is DF.
  DIIS enabled.
  MOM disabled.
  Fractional occupation disabled.
  Guess Type is SAD.
  Energy threshold   = 1.00e-06
  Density threshold  = 1.00e-06
  Integral threshold = 1.00e-12

  ==> Primary Basis <==

  Basis Set: 6-311+G*
    Blend: 6-311+G*
    Number of shells: 73
    Number of basis functions: 149
    Number of Cartesian functions: 155
    Spherical Harmonics?: true
    Max angular momentum: 2

  ==> DFT Potential <==

   => LibXC <=

    Version 5.1.5
    S. Lehtola, C. Steigemann, M. J. Oliveira, and M. A. Marques, SoftwareX 7, 1 (2018) (10.1016/j.softx.2017.11.002)

   => Composite Functional: WB97X-D <= 

    wB97X-D Hyb-GGA Exchange-Correlation Functional

    J.-D. Chai and M. Head-Gordon, Phys. Chem. Chem. Phys. 10, 6615 (2008) (10.1039/B810189B)

    Deriv               =              1
    GGA                 =           TRUE
    Meta                =          FALSE

    Exchange Hybrid     =           TRUE
    MP2 Hybrid          =          FALSE

   => Exchange-Correlation Functionals <=

    1.0000   wB97X-D range-separated functional

   => Exact (HF) Exchange <=

    0.7780            HF,LR [omega = 0.2000]
    0.2220               HF 

   => LibXC Density Thresholds  <==

    XC_HYB_GGA_XC_WB97X_D:  1.00E-14 

   => Molecular Quadrature <=

    Radial Scheme          =       TREUTLER
    Pruning Scheme         =           NONE
    Nuclear Scheme         =       TREUTLER

    Blocking Scheme        =         OCTREE
    BS radius alpha        =              1
    Pruning alpha          =              1
    Radial Points          =             75
    Spherical Points       =            302
    Total Points           =         194214
    Total Blocks           =           1493
    Max Points             =            256
    Max Functions          =            148
    Weights Tolerance      =       1.00E-15

   => Loading Basis Set <=

    Name: (6-311+G* AUX)
    Role: JKFIT
    Keyword: DF_BASIS_SCF
    atoms 1      entry S          line   768 file /home/chase/psi4conda/share/psi4/basis/heavy-aug-cc-pvtz-jkfit.gbs 
    atoms 2-4, 6 entry O          line   324 file /home/chase/psi4conda/share/psi4/basis/heavy-aug-cc-pvtz-jkfit.gbs 
    atoms 5      entry C          line   200 file /home/chase/psi4conda/share/psi4/basis/heavy-aug-cc-pvtz-jkfit.gbs 
    atoms 7-9    entry H          line   116 file /home/chase/psi4conda/share/psi4/basis/heavy-aug-cc-pvtz-jkfit.gbs 

  ==> Integral Setup <==

  DFHelper Memory: AOs need 0.375 GiB; user supplied 0.375 GiB. Using in-core AOs.

  ==> MemDFJK: Density-Fitted J/K Matrices <==

    J tasked:                   Yes
    K tasked:                   Yes
    wK tasked:                  Yes
    Omega:                2.000E-01
    OpenMP threads:               2
    Memory [MiB]:               383
    Algorithm:                 Core
    Schwarz Cutoff:           1E-12
    Mask sparsity (%):       2.5765
    Fitting Condition:        1E-10

   => Auxiliary Basis Set <=

  Basis Set: (6-311+G* AUX)
    Blend: HEAVY-AUG-CC-PVTZ-JKFIT
    Number of shells: 222
    Number of basis functions: 756
    Number of Cartesian functions: 940
    Spherical Harmonics?: true
    Max angular momentum: 4

  Cached 50.0% of DFT collocation blocks in 0.302 [GiB].

  Minimum eigenvalue in the overlap matrix is 3.2112324332E-04.
  Reciprocal condition number of the overlap matrix is 3.2830346332E-05.
    Using symmetric orthogonalization.

  ==> Pre-Iterations <==

  SCF Guess: Superposition of Atomic Densities via on-the-fly atomic UHF (no occupation information).

   -------------------------
    Irrep   Nso     Nmo    
   -------------------------
     A        149     149 
   -------------------------
    Total     149     149
   -------------------------

  ==> Iterations <==

                           Total Energy        Delta E     RMS |[F,P]|

   @DF-RKS iter SAD:  -738.95482987308833   -7.38955e+02   0.00000e+00 
   @DF-RKS iter   1:  -738.52283258467128    4.31997e-01   7.83828e-03 ADIIS/DIIS
   @DF-RKS iter   2:  -738.44976319284160    7.30694e-02   8.82087e-03 ADIIS/DIIS
   @DF-RKS iter   3:  -738.99807060735736   -5.48307e-01   7.89598e-04 ADIIS/DIIS
   @DF-RKS iter   4:  -739.00193762447191   -3.86702e-03   2.72847e-04 ADIIS/DIIS
   @DF-RKS iter   5:  -739.00246688572031   -5.29261e-04   1.13007e-04 ADIIS/DIIS
   @DF-RKS iter   6:  -739.00255965914755   -9.27734e-05   2.40018e-05 DIIS
   @DF-RKS iter   7:  -739.00256503217599   -5.37303e-06   4.46071e-06 DIIS
   @DF-RKS iter   8:  -739.00256527723877   -2.45063e-07   1.53316e-06 DIIS
   @DF-RKS iter   9:  -739.00256530476770   -2.75289e-08   4.12219e-07 DIIS
  Energy and wave function converged.


  ==> Post-Iterations <==

   Electrons on quadrature grid:
      Ntotal   =   57.9999918186 ; deviation = -8.181e-06 

    Orbital Energies [Eh]
    ---------------------

    Doubly Occupied:                                                      

       1A    -89.062485     2A    -19.110339     3A    -19.044236  
       4A    -19.044205     5A    -19.043815     6A    -10.181944  
       7A     -8.074715     8A     -6.024006     9A     -6.021761  
      10A     -6.021587    11A     -1.086913    12A     -0.973614  
      13A     -0.920199    14A     -0.917788    15A     -0.648185  
      16A     -0.520514    17A     -0.440549    18A     -0.414652  
      19A     -0.408193    20A     -0.372493    21A     -0.353093  
      22A     -0.313448    23A     -0.257851    24A     -0.256544  
      25A     -0.246684    26A     -0.237807    27A     -0.208368  
      28A     -0.189838    29A     -0.167358  

    Virtual:                                                              

      30A      0.181796    31A      0.214448    32A      0.224812  
      33A      0.228293    34A      0.255997    35A      0.256955  
      36A      0.258821    37A      0.303312    38A      0.320107  
      39A      0.361498    40A      0.369976    41A      0.377022  
      42A      0.393968    43A      0.394872    44A      0.407950  
      45A      0.426247    46A      0.443664    47A      0.445733  
      48A      0.463199    49A      0.478391    50A      0.486030  
      51A      0.494622    52A      0.497760    53A      0.504546  
      54A      0.519275    55A      0.521402    56A      0.525812  
      57A      0.533592    58A      0.549754    59A      0.563004  
      60A      0.585867    61A      0.621265    62A      0.633535  
      63A      0.646178    64A      0.676635    65A      0.721490  
      66A      0.750440    67A      0.789865    68A      0.840982  
      69A      0.884808    70A      0.903949    71A      0.959786  
      72A      0.963288    73A      1.078251    74A      1.177967  
      75A      1.230028    76A      1.236813    77A      1.283378  
      78A      1.302775    79A      1.346477    80A      1.360808  
      81A      1.378655    82A      1.384332    83A      1.405697  
      84A      1.406854    85A      1.412668    86A      1.447462  
      87A      1.478296    88A      1.491246    89A      1.505025  
      90A      1.574337    91A      1.608655    92A      1.800554  
      93A      1.816822    94A      1.834329    95A      1.836787  
      96A      1.932978    97A      2.007208    98A      2.057274  
      99A      2.084892   100A      2.087992   101A      2.170453  
     102A      2.648787   103A      2.683680   104A      2.729765  
     105A      3.031057   106A      3.047445   107A      3.092705  
     108A      3.094772   109A      3.100258   110A      3.104872  
     111A      3.121055   112A      3.131244   113A      3.135951  
     114A      3.160506   115A      3.264177   116A      3.278818  
     117A      3.298992   118A      3.352583   119A      3.448880  
     120A      3.449961   121A      3.470059   122A      3.474404  
     123A      3.566158   124A      3.744961   125A      3.892156  
     126A      3.893656   127A      4.164461   128A      5.238476  
     129A      5.252230   130A      5.299773   131A      5.310392  
     132A      5.320818   133A      5.324178   134A      5.329955  
     135A      5.353521   136A      5.436382   137A      5.593290  
     138A      5.621569   139A      5.700239   140A      8.448726  
     141A     17.609814   142A     17.738682   143A     17.777243  
     144A     23.818776   145A     50.173699   146A     50.194807  
     147A     50.196591   148A     50.279345   149A    189.615045  

    Final Occupation by Irrep:
              A 
    DOCC [    29 ]

  @DF-RKS Final Energy:  -739.00256530476770

   => Energetics <=

    Nuclear Repulsion Energy =            363.0845218917349939
    One-Electron Energy =               -1750.4229436122079733
    Two-Electron Energy =                 696.0483859384378320
    DFT Exchange-Correlation Energy =     -47.7103199951358761
    Empirical Dispersion Energy =          -0.0022095275966324
    VV10 Nonlocal Energy =                  0.0000000000000000
    Total Energy =                       -739.0025653047676997

Computation Completed


Properties will be evaluated at   0.000000,   0.000000,   0.000000 [a0]

Properties computed using the SCF density matrix


 Multipole Moments:

 ------------------------------------------------------------------------------------
     Multipole            Electronic (a.u.)      Nuclear  (a.u.)        Total (a.u.)
 ------------------------------------------------------------------------------------

 L = 1.  Multiply by 2.5417464519 to convert [e a0] to [Debye]
 Dipole X            :         -4.4262358            5.6835633            1.2573275
 Dipole Y            :          1.7057738           -2.0194637           -0.3136899
 Dipole Z            :          2.1066293           -2.7629794           -0.6563501
 Magnitude           :                                                    1.4526078

 ------------------------------------------------------------------------------------

*** tstop() called on DESKTOP-26BCFJT at Thu Nov  3 12:59:54 2022
Module time:
	user time   =      27.66 seconds =       0.46 minutes
	system time =       0.48 seconds =       0.01 minutes
	total time  =         15 seconds =       0.25 minutes
Total time:
	user time   =      27.66 seconds =       0.46 minutes
	system time =       0.48 seconds =       0.01 minutes
	total time  =         15 seconds =       0.25 minutes


Properties will be evaluated at   0.000000,   0.000000,   0.000000 [a0]
OEProp: No title given, name of density matrix used for the following properties is 'SCF density'


  Wiberg Bond Indices using Orthogonal Lowdin Orbitals:

  Irrep: 1 Size: 9 x 9

                 1                   2                   3                   4                   5

    1     0.00000000000000     1.76398792657441     1.76381510263407     0.95110615895672     0.10679008491770
    2     1.76398792657441     0.00000000000000     0.19640056016162     0.15538126102963     0.07363395941480
    3     1.76381510263407     0.19640056016162     0.00000000000000     0.15532841413565     0.07417151731224
    4     0.95110615895672     0.15538126102963     0.15532841413565     0.00000000000000     1.37254851170905
    5     0.10679008491770     0.07363395941480     0.07417151731224     1.37254851170905     0.00000000000000
    6     1.80866395334498     0.18848505613419     0.18841444556245     0.16078863411852     0.02924336583285
    7     0.01019841558274     0.00191250022566     0.00252531037870     0.06231943896747     0.90843425567910
    8     0.03639985936111     0.01819833478167     0.01797679246252     0.04606724826629     0.86924083444222
    9     0.01027026338167     0.00235070594996     0.00197982605848     0.06223298373140     0.90846882863067

                 6                   7                   8                   9

    1     1.80866395334498     0.01019841558274     0.03639985936111     0.01027026338167
    2     0.18848505613419     0.00191250022566     0.01819833478167     0.00235070594996
    3     0.18841444556245     0.00252531037870     0.01797679246252     0.00197982605848
    4     0.16078863411852     0.06231943896747     0.04606724826629     0.06223298373140
    5     0.02924336583285     0.90843425567910     0.86924083444222     0.90846882863067
    6     0.00000000000000     0.00147609866703     0.00220462340931     0.00152970817400
    7     0.00147609866703     0.00000000000000     0.00889154753560     0.00902878430132
    8     0.00220462340931     0.00889154753560     0.00000000000000     0.00897020260794
    9     0.00152970817400     0.00902878430132     0.00897020260794     0.00000000000000



  Atomic Valences: 

 #  #
 Irrep: 1
      1:    6.451231764753399
      2:    2.400350304271945
      3:    2.400611968705724
      4:    2.965772650914738
      5:    4.342531357938626
      6:    2.380805885243342
      7:    1.004786351337637
      8:    1.007949442866663
      9:    1.004831302835449


    Psi4 stopped on: Thursday, 03 November 2022 12:59PM
    Psi4 wall time for execution: 0:00:14.34

*** Psi4 exiting successfully. Buy a developer a beer!
