2022-11-03:13:00:30,711 INFO     [psi4.driver.task_planner:266] PLANNING Atomic:  keywords={'FREEZE_CORE': 'TRUE', 'function_kwargs': {}}
2022-11-03:13:00:30,715 INFO     [psi4.driver.driver:499] Compute energy(): method=wb97x-d, basis=6-311+g*, molecule=default, nre=362.442906196142
2022-11-03:13:00:46,694 INFO     [psi4.driver.driver:502] Return energy(): -739.00448626909
igio,
    A. Alenaizan, A. M. James, S. Lehtola, J. P. Misiewicz, M. Scheurer,
    R. A. Shaw, J. B. Schriber, Y. Xie, Z. L. Glick, D. A. Sirianni,
    J. S. O'Brien, J. M. Waldrop, A. Kumar, E. G. Hohenstein,
    B. P. Pritchard, B. R. Brooks, H. F. Schaefer III, A. Yu. Sokolov,
    K. Patkowski, A. E. DePrince III, U. Bozkaya, R. A. King,
    F. A. Evangelista, J. M. Turney, T. D. Crawford, C. D. Sherrill,
    J. Chem. Phys. 152(18) 184108 (2020). https://doi.org/10.1063/5.0006002

                            Additional Code Authors
    E. T. Seidl, C. L. Janssen, E. F. Valeev, M. L. Leininger,
    J. F. Gonthier, R. M. Richard, H. R. McAlexander, M. Saitow, X. Wang,
    P. Verma, M. H. Lechner, and A. Jiang

             Previous Authors, Complete List of Code Contributors,
                       and Citations for Specific Modules
    https://github.com/psi4/psi4/blob/master/codemeta.json
    https://github.com/psi4/psi4/graphs/contributors
    http://psicode.org/psi4manual/master/introduction.html#citing-psifour

    -----------------------------------------------------------------------


    Psi4 started on: Thursday, 03 November 2022 01:00PM

    Process ID: 9323
    Host:       DESKTOP-26BCFJT
    PSIDATADIR: /home/chase/psi4conda/share/psi4
    Memory:     500.0 MiB
    Threads:    1
    
  ==> Input File <==

--------------------------------------------------------------------------
molecule { 
-1 1
 S   -0.382975   -0.129613    0.192840
 O   -0.542114   -0.887661   -1.037754
 O   -1.052913   -0.690939    1.345839
 O    1.246604   -0.260905    0.589411
 C    1.988167   -0.391043   -0.571586
 O   -0.588838    1.296731    0.012638
 H    1.855112    0.494140   -1.206670
 H    3.044289   -0.490259   -0.297068
 H    1.658353   -1.265243   -1.140582
}
memory 1GB
set_num_threads(2)
psi4_io.set_default_path("/home/chase/temp/Psi4-mso4")
set freeze_core True
E, wfn = energy('wb97x-d/6-311+G*',return_wfn=True)
oeprop(wfn,"WIBERG_LOWDIN_INDICES")
clean()
--------------------------------------------------------------------------

  Memory set to 953.674 MiB by Python driver.
  Threads set to 2 by Python driver.

Scratch directory: /home/chase/temp/Psi4-mso4/

*** tstart() called on DESKTOP-26BCFJT
*** at Thu Nov  3 13:00:30 2022

   => Loading Basis Set <=

    Name: 6-311+G*
    Role: ORBITAL
    Keyword: BASIS
    atoms 1      entry S          line   430 file /home/chase/psi4conda/share/psi4/basis/6-311pgs.gbs 
    atoms 2-4, 6 entry O          line   172 file /home/chase/psi4conda/share/psi4/basis/6-311pgs.gbs 
    atoms 5      entry C          line   130 file /home/chase/psi4conda/share/psi4/basis/6-311pgs.gbs 
    atoms 7-9    entry H          line    47 file /home/chase/psi4conda/share/psi4/basis/6-311pgs.gbs 

   => WB97X-D: Empirical Dispersion <=

    Chai and Head-Gordon Dispersion Correction
    Chai, J.-D.; Head-Gordon, M. (2010), J. Chem. Phys., 132: 6615-6620

        s6 =       1.000000


         ---------------------------------------------------------
                                   SCF
               by Justin Turney, Rob Parrish, Andy Simmonett
                          and Daniel G. A. Smith
                              RKS Reference
                        2 Threads,    953 MiB Core
         ---------------------------------------------------------

  ==> Geometry <==

    Molecular point group: c1
    Full point group: C1

    Geometry (in Angstrom), charge = -1, multiplicity = 1:

       Center              X                  Y                   Z               Mass       
    ------------   -----------------  -----------------  -----------------  -----------------
         S           -0.412091044565     0.039698406900     0.091925872707    31.972071174400
         O           -0.571230044565    -0.718349593100    -1.138668127293    15.994914619570
         O           -1.082029044565    -0.521627593100     1.244924872707    15.994914619570
         O            1.217487955435    -0.091593593100     0.488496872707    15.994914619570
         C            1.959050955435    -0.221731593100    -0.672500127293    12.000000000000
         O           -0.617954044565     1.466042406900    -0.088276127293    15.994914619570
         H            1.825995955435     0.663451406900    -1.307584127293     1.007825032230
         H            3.015172955435    -0.320947593100    -0.397982127293     1.007825032230
         H            1.629236955435    -1.095931593100    -1.241496127293     1.007825032230

  Running in c1 symmetry.

  Rotational constants: A =      0.16964  B =      0.09481  C =      0.09368 [cm^-1]
  Rotational constants: A =   5085.75374  B =   2842.20681  C =   2808.54714 [MHz]
  Nuclear repulsion =  362.442906196142019

  Charge       = -1
  Multiplicity = 1
  Electrons    = 58
  Nalpha       = 29
  Nbeta        = 29

  ==> Algorithm <==

  SCF Algorithm Type is DF.
  DIIS enabled.
  MOM disabled.
  Fractional occupation disabled.
  Guess Type is SAD.
  Energy threshold   = 1.00e-06
  Density threshold  = 1.00e-06
  Integral threshold = 1.00e-12

  ==> Primary Basis <==

  Basis Set: 6-311+G*
    Blend: 6-311+G*
    Number of shells: 73
    Number of basis functions: 149
    Number of Cartesian functions: 155
    Spherical Harmonics?: true
    Max angular momentum: 2

  ==> DFT Potential <==

   => LibXC <=

    Version 5.1.5
    S. Lehtola, C. Steigemann, M. J. Oliveira, and M. A. Marques, SoftwareX 7, 1 (2018) (10.1016/j.softx.2017.11.002)

   => Composite Functional: WB97X-D <= 

    wB97X-D Hyb-GGA Exchange-Correlation Functional

    J.-D. Chai and M. Head-Gordon, Phys. Chem. Chem. Phys. 10, 6615 (2008) (10.1039/B810189B)

    Deriv               =              1
    GGA                 =           TRUE
    Meta                =          FALSE

    Exchange Hybrid     =           TRUE
    MP2 Hybrid          =          FALSE

   => Exchange-Correlation Functionals <=

    1.0000   wB97X-D range-separated functional

   => Exact (HF) Exchange <=

    0.7780            HF,LR [omega = 0.2000]
    0.2220               HF 

   => LibXC Density Thresholds  <==

    XC_HYB_GGA_XC_WB97X_D:  1.00E-14 

   => Molecular Quadrature <=

    Radial Scheme          =       TREUTLER
    Pruning Scheme         =           NONE
    Nuclear Scheme         =       TREUTLER

    Blocking Scheme        =         OCTREE
    BS radius alpha        =              1
    Pruning alpha          =              1
    Radial Points          =             75
    Spherical Points       =            302
    Total Points           =         194316
    Total Blocks           =           1473
    Max Points             =            256
    Max Functions          =            147
    Weights Tolerance      =       1.00E-15

   => Loading Basis Set <=

    Name: (6-311+G* AUX)
    Role: JKFIT
    Keyword: DF_BASIS_SCF
    atoms 1      entry S          line   768 file /home/chase/psi4conda/share/psi4/basis/heavy-aug-cc-pvtz-jkfit.gbs 
    atoms 2-4, 6 entry O          line   324 file /home/chase/psi4conda/share/psi4/basis/heavy-aug-cc-pvtz-jkfit.gbs 
    atoms 5      entry C          line   200 file /home/chase/psi4conda/share/psi4/basis/heavy-aug-cc-pvtz-jkfit.gbs 
    atoms 7-9    entry H          line   116 file /home/chase/psi4conda/share/psi4/basis/heavy-aug-cc-pvtz-jkfit.gbs 

  ==> Integral Setup <==

  DFHelper Memory: AOs need 0.374 GiB; user supplied 0.374 GiB. Using in-core AOs.

  ==> MemDFJK: Density-Fitted J/K Matrices <==

    J tasked:                   Yes
    K tasked:                   Yes
    wK tasked:                  Yes
    Omega:                2.000E-01
    OpenMP threads:               2
    Memory [MiB]:               383
    Algorithm:                 Core
    Schwarz Cutoff:           1E-12
    Mask sparsity (%):       2.6936
    Fitting Condition:        1E-10

   => Auxiliary Basis Set <=

  Basis Set: (6-311+G* AUX)
    Blend: HEAVY-AUG-CC-PVTZ-JKFIT
    Number of shells: 222
    Number of basis functions: 756
    Number of Cartesian functions: 940
    Spherical Harmonics?: true
    Max angular momentum: 4

  Cached 50.0% of DFT collocation blocks in 0.315 [GiB].

  Minimum eigenvalue in the overlap matrix is 4.6539499353E-04.
  Reciprocal condition number of the overlap matrix is 4.8005834499E-05.
    Using symmetric orthogonalization.

  ==> Pre-Iterations <==

  SCF Guess: Superposition of Atomic Densities via on-the-fly atomic UHF (no occupation information).

   -------------------------
    Irrep   Nso     Nmo    
   -------------------------
     A        149     149 
   -------------------------
    Total     149     149
   -------------------------

  ==> Iterations <==

                           Total Energy        Delta E     RMS |[F,P]|

   @DF-RKS iter SAD:  -738.93533854038469   -7.38935e+02   0.00000e+00 
   @DF-RKS iter   1:  -738.52321891108113    4.12120e-01   7.84487e-03 ADIIS/DIIS
   @DF-RKS iter   2:  -738.44824441183425    7.49745e-02   8.84363e-03 ADIIS/DIIS
   @DF-RKS iter   3:  -738.99987424265771   -5.51630e-01   7.98340e-04 ADIIS/DIIS
   @DF-RKS iter   4:  -739.00383153795099   -3.95730e-03   2.79348e-04 ADIIS/DIIS
   @DF-RKS iter   5:  -739.00438642047595   -5.54883e-04   1.13847e-04 ADIIS/DIIS
   @DF-RKS iter   6:  -739.00448048834255   -9.40679e-05   2.42864e-05 DIIS
   @DF-RKS iter   7:  -739.00448599242850   -5.50409e-06   4.67964e-06 DIIS
   @DF-RKS iter   8:  -739.00448623448494   -2.42056e-07   2.00674e-06 DIIS
   @DF-RKS iter   9:  -739.00448626908997   -3.46050e-08   8.38261e-07 DIIS
  Energy and wave function converged.


  ==> Post-Iterations <==

   Electrons on quadrature grid:
      Ntotal   =   58.0000000524 ; deviation = 5.241e-08 

    Orbital Energies [Eh]
    ---------------------

    Doubly Occupied:                                                      

       1A    -89.061626     2A    -19.110940     3A    -19.046706  
       4A    -19.042901     5A    -19.040345     6A    -10.181389  
       7A     -8.073709     8A     -6.023036     9A     -6.020824  
      10A     -6.020525    11A     -1.085252    12A     -0.973966  
      13A     -0.920573    14A     -0.915057    15A     -0.648670  
      16A     -0.517327    17A     -0.441823    18A     -0.411933  
      19A     -0.407638    20A     -0.369671    21A     -0.358419  
      22A     -0.313179    23A     -0.259460    24A     -0.253592  
      25A     -0.240748    26A     -0.238709    27A     -0.209253  
      28A     -0.188659    29A     -0.165977  

    Virtual:                                                              

      30A      0.179354    31A      0.216868    32A      0.222031  
      33A      0.227888    34A      0.256263    35A      0.257321  
      36A      0.259957    37A      0.299277    38A      0.336694  
      39A      0.350499    40A      0.360408    41A      0.379142  
      42A      0.385186    43A      0.405781    44A      0.413640  
      45A      0.418283    46A      0.440267    47A      0.447116  
      48A      0.462223    49A      0.478556    50A      0.487675  
      51A      0.494008    52A      0.495831    53A      0.502548  
      54A      0.516403    55A      0.522965    56A      0.528062  
      57A      0.538332    58A      0.547727    59A      0.564716  
      60A      0.602302    61A      0.610918    62A      0.636371  
      63A      0.652883    64A      0.669255    65A      0.704849  
      66A      0.728047    67A      0.775267    68A      0.846008  
      69A      0.875586    70A      0.899886    71A      0.953684  
      72A      0.999831    73A      1.081000    74A      1.182613  
      75A      1.234716    76A      1.253883    77A      1.279971  
      78A      1.302157    79A      1.322729    80A      1.369333  
      81A      1.381188    82A      1.392817    83A      1.397592  
      84A      1.406475    85A      1.415750    86A      1.441801  
      87A      1.455369    88A      1.479769    89A      1.518358  
      90A      1.606098    91A      1.642716    92A      1.795953  
      93A      1.801800    94A      1.825731    95A      1.842170  
      96A      1.923421    97A      1.994798    98A      2.016761  
      99A      2.082546   100A      2.088516   101A      2.156673  
     102A      2.661081   103A      2.667137   104A      2.725777  
     105A      3.033328   106A      3.043850   107A      3.092541  
     108A      3.097905   109A      3.102425   110A      3.118614  
     111A      3.120417   112A      3.127187   113A      3.150990  
     114A      3.164815   115A      3.235827   116A      3.286384  
     117A      3.318437   118A      3.364711   119A      3.443100  
     120A      3.447782   121A      3.453379   122A      3.515318  
     123A      3.541457   124A      3.741952   125A      3.888786  
     126A      3.899564   127A      4.173649   128A      5.228633  
     129A      5.270418   130A      5.298936   131A      5.305481  
     132A      5.322556   133A      5.328020   134A      5.330287  
     135A      5.336128   136A      5.434701   137A      5.597803  
     138A      5.614025   139A      5.709195   140A      8.450285  
     141A     17.610482   142A     17.739909   143A     17.770469  
     144A     23.831585   145A     50.166139   146A     50.195573  
     147A     50.201760   148A     50.258777   149A    189.619025  

    Final Occupation by Irrep:
              A 
    DOCC [    29 ]

  @DF-RKS Final Energy:  -739.00448626908997

   => Energetics <=

    Nuclear Repulsion Energy =            362.4429061961420189
    One-Electron Energy =               -1749.1873061352575860
    Two-Electron Energy =                 695.4504330211573233
    DFT Exchange-Correlation Energy =     -47.7082850361121018
    Empirical Dispersion Energy =          -0.0022343150196827
    VV10 Nonlocal Energy =                  0.0000000000000000
    Total Energy =                       -739.0044862690899663

Computation Completed


Properties will be evaluated at   0.000000,   0.000000,   0.000000 [a0]

Properties computed using the SCF density matrix


 Multipole Moments:

 ------------------------------------------------------------------------------------
     Multipole            Electronic (a.u.)      Nuclear  (a.u.)        Total (a.u.)
 ------------------------------------------------------------------------------------

 L = 1.  Multiply by 2.5417464519 to convert [e a0] to [Debye]
 Dipole X            :         -4.6399993            6.0498702            1.4098710
 Dipole Y            :          0.4842557           -0.7046218           -0.2203661
 Dipole Z            :          2.2756438           -2.7579216           -0.4822778
 Magnitude           :                                                    1.5062832

 ------------------------------------------------------------------------------------

*** tstop() called on DESKTOP-26BCFJT at Thu Nov  3 13:00:46 2022
Module time:
	user time   =      31.09 seconds =       0.52 minutes
	system time =       0.49 seconds =       0.01 minutes
	total time  =         16 seconds =       0.27 minutes
Total time:
	user time   =      31.09 seconds =       0.52 minutes
	system time =       0.49 seconds =       0.01 minutes
	total time  =         16 seconds =       0.27 minutes


Properties will be evaluated at   0.000000,   0.000000,   0.000000 [a0]
OEProp: No title given, name of density matrix used for the following properties is 'SCF density'


  Wiberg Bond Indices using Orthogonal Lowdin Orbitals:

  Irrep: 1 Size: 9 x 9

                 1                   2                   3                   4                   5

    1     0.00000000000000     1.75105391471365     1.80576874054972     0.94547839165680     0.10625788704029
    2     1.75105391471365     0.00000000000000     0.18870553926251     0.14806350752195     0.10358364538764
    3     1.80576874054972     0.18870553926251     0.00000000000000     0.16173408993916     0.02918306503892
    4     0.94547839165680     0.14806350752195     0.16173408993916     0.00000000000000     1.38023997533523
    5     0.10625788704029     0.10358364538764     0.02918306503892     1.38023997533523     0.00000000000000
    6     1.78389514384218     0.19605287658970     0.19120285920865     0.15959442100708     0.04361212397852
    7     0.01995463953288     0.00886053487914     0.00141550513812     0.05919482630099     0.89119738718872
    8     0.01553417516531     0.00340308192176     0.00277415487920     0.05911157814970     0.90505148963660
    9     0.02057238762467     0.02364221630488     0.00099217677250     0.05559956753765     0.88674995399702

                 6                   7                   8                   9

    1     1.78389514384218     0.01995463953288     0.01553417516531     0.02057238762467
    2     0.19605287658970     0.00886053487914     0.00340308192176     0.02364221630488
    3     0.19120285920865     0.00141550513812     0.00277415487920     0.00099217677250
    4     0.15959442100708     0.05919482630099     0.05911157814970     0.05559956753765
    5     0.04361212397852     0.89119738718872     0.90505148963660     0.88674995399702
    6     0.00000000000000     0.00668708254383     0.00173627888050     0.00136849478839
    7     0.00668708254383     0.00000000000000     0.00933713325639     0.00717958084262
    8     0.00173627888050     0.00933713325639     0.00000000000000     0.00982721398551
    9     0.00136849478839     0.00717958084262     0.00982721398551     0.00000000000000



  Atomic Valences: 

 #  #
 Irrep: 1
      1:    6.448515280125498
      2:    2.423365316581233
      3:    2.381776130788774
      4:    2.969016357448553
      5:    4.345875527602947
      6:    2.384149280838846
      7:    1.003826689682691
      8:    1.006775105874974
      9:    1.005931591853239


    Psi4 stopped on: Thursday, 03 November 2022 01:00PM
    Psi4 wall time for execution: 0:00:16.04

*** Psi4 exiting successfully. Buy a developer a beer!
