      -----------------------------------------------------------      
     |                   =====================                   |     
     |                           x T B                           |     
     |                   =====================                   |     
     |                         S. Grimme                         |     
     |          Mulliken Center for Theoretical Chemistry        |     
     |                    University of Bonn                     |     
      -----------------------------------------------------------      

   * xtb version 6.5.1 (b24c23e) compiled by 'conda@728c89f4b128' on 2022-07-12

   xtb is free software: you can redistribute it and/or modify it under
   the terms of the GNU Lesser General Public License as published by
   the Free Software Foundation, either version 3 of the License, or
   (at your option) any later version.
   
   xtb is distributed in the hope that it will be useful,
   but WITHOUT ANY WARRANTY; without even the implied warranty of
   MERCHANTABILITY or FITNESS FOR A PARTICULAR PURPOSE.  See the
   GNU Lesser General Public License for more details.
   
   Cite this work as:
   * C. Bannwarth, E. Caldeweyher, S. Ehlert, A. Hansen, P. Pracht,
     J. Seibert, S. Spicher, S. Grimme, WIREs Comput. Mol. Sci., 2020, 11,
     e01493. DOI: 10.1002/wcms.1493
   
   for GFN2-xTB:
   * C. Bannwarth, S. Ehlert and S. Grimme., J. Chem. Theory Comput., 2019,
     15, 1652-1671. DOI: 10.1021/acs.jctc.8b01176
   for GFN1-xTB:
   * S. Grimme, C. Bannwarth, P. Shushkov, J. Chem. Theory Comput., 2017,
     13, 1989-2009. DOI: 10.1021/acs.jctc.7b00118
   for GFN0-xTB:
   * P. Pracht, E. Caldeweyher, S. Ehlert, S. Grimme, ChemRxiv, 2019, preprint.
     DOI: 10.26434/chemrxiv.8326202.v1
   for GFN-FF:
   * S. Spicher and S. Grimme, Angew. Chem. Int. Ed., 2020, 59, 15665-15673.
     DOI: 10.1002/anie.202004239
   
   for ALPB and GBSA implicit solvation:
   * S. Ehlert, M. Stahn, S. Spicher, S. Grimme, J. Chem. Theory Comput.,
     2021, 17, 4250-4261. DOI: 10.1021/acs.jctc.1c00471
   
   for DFT-D4:
   * E. Caldeweyher, C. Bannwarth and S. Grimme, J. Chem. Phys., 2017,
     147, 034112. DOI: 10.1063/1.4993215
   * E. Caldeweyher, S. Ehlert, A. Hansen, H. Neugebauer, S. Spicher,
     C. Bannwarth and S. Grimme, J. Chem. Phys., 2019, 150, 154122.
     DOI: 10.1063/1.5090222
   * E. Caldeweyher, J.-M. Mewes, S. Ehlert and S. Grimme, Phys. Chem. Chem. Phys.
     2020, 22, 8499-8512. DOI: 10.1039/D0CP00502A
   
   for sTDA-xTB:
   * S. Grimme and C. Bannwarth, J. Chem. Phys., 2016, 145, 054103.
     DOI: 10.1063/1.4959605
   
   in the mass-spec context:
   * V. Asgeirsson, C. Bauer and S. Grimme, Chem. Sci., 2017, 8, 4879.
     DOI: 10.1039/c7sc00601b
   * J. Koopman and S. Grimme, ACS Omega 2019, 4, 12, 15120-15133.
     DOI: 10.1021/acsomega.9b02011
   
   for metadynamics refer to:
   * S. Grimme, J. Chem. Theory Comput., 2019, 155, 2847-2862
     DOI: 10.1021/acs.jctc.9b00143
   
   for SPH calculations refer to:
   * S. Spicher and S. Grimme, J. Chem. Theory Comput., 2021, 17, 1701-1714
     DOI: 10.1021/acs.jctc.0c01306
   
   with help from (in alphabetical order)
   P. Atkinson, C. Bannwarth, F. Bohle, G. Brandenburg, E. Caldeweyher
   M. Checinski, S. Dohm, S. Ehlert, S. Ehrlich, I. Gerasimov, C. Hölzer
   A. Katbashev, J. Koopman, C. Lavigne, S. Lehtola, F. März, M. Müller,
   F. Musil, H. Neugebauer, J. Pisarek, C. Plett, P. Pracht, F. Pultar,
   J. Seibert, P. Shushkov, S. Spicher, M. Stahn, M. Steiner, T. Strunk,
   J. Stückrath, T. Rose, and J. Unsleber
   
 * started run on 2022/11/03 at 12:53:57.135     

           -------------------------------------------------
          |                Calculation Setup                |
           -------------------------------------------------

          program call               : /home/chase/psi4conda/envs/xtbenv/bin/xtb --gfn 2 --chrg -1 --uhf 0 mso4-opt-4-5-031_preQMOPTprefit_xyzformat.xyz --opt --input xtb-opt-4-5-031_constr.txt
          coordinate file            : mso4-opt-4-5-031_preQMOPTprefit_xyzformat.xyz
          omp threads                :                     8

   ID    Z sym.   atoms
    1   16 S      1
    2    8 O      2-4, 6
    3    6 C      5
    4    1 H      7-9
constraining angle 1 4 5 7 to   31.0209836°, actual value:   31.0209836°
constraining angle 2 1 4 5 to  299.9915961°, actual value:  -60.0084039°

           -------------------------------------------------
          |                 G F N 2 - x T B                 |
           -------------------------------------------------

        Reference                      10.1021/acs.jctc.8b01176
      * Hamiltonian:
        H0-scaling (s, p, d)           1.850000    2.230000    2.230000
        zeta-weighting                 0.500000
      * Dispersion:
        s8                             2.700000
        a1                             0.520000
        a2                             5.000000
        s9                             5.000000
      * Repulsion:
        kExp                           1.500000    1.000000
        rExp                           1.000000
      * Coulomb:
        alpha                          2.000000
        third order                    shell-resolved
        anisotropic                    true
        a3                             3.000000
        a5                             4.000000
        cn-shift                       1.200000
        cn-exp                         4.000000
        max-rad                        5.000000

q/qsh data taken from xtbrestart
CAMM data taken from xtbrestart

          ...................................................
          :                      SETUP                      :
          :.................................................:
          :  # basis functions                  33          :
          :  # atomic orbitals                  32          :
          :  # shells                           16          :
          :  # electrons                        38          :
          :  max. iterations                   250          :
          :  Hamiltonian                  GFN2-xTB          :
          :  restarted?                       true          :
          :  GBSA solvation                  false          :
          :  PC potential                    false          :
          :  electronic temp.          300.0000000     K    :
          :  accuracy                    1.0000000          :
          :  -> integral cutoff          0.2500000E+02      :
          :  -> integral neglect         0.1000000E-07      :
          :  -> SCF convergence          0.1000000E-05 Eh   :
          :  -> wf. convergence          0.1000000E-03 e    :
          :  Broyden damping             0.4000000          :
          ...................................................

 iter      E             dE          RMSdq      gap      omega  full diag
   1    -23.5562533 -0.235563E+02  0.422E+00    7.51       0.0  T
   2    -23.5605106 -0.425739E-02  0.204E+00    7.56       1.0  T
   3    -23.5613147 -0.804033E-03  0.636E-01    7.55       1.0  T
   4    -23.5613840 -0.693683E-04  0.176E-01    7.55       1.0  T
   5    -23.5613913 -0.729915E-05  0.382E-02    7.56       1.0  T
   6    -23.5613919 -0.518737E-06  0.177E-02    7.56       1.9  T
   7    -23.5613920 -0.919518E-07  0.312E-03    7.56      10.7  T
   8    -23.5613920 -0.472121E-08  0.180E-03    7.56      18.5  T
   9    -23.5613920 -0.265656E-08  0.356E-04    7.56      93.6  T
  10    -23.5613920 -0.196152E-09  0.111E-04    7.56     300.6  T

   *** convergence criteria satisfied after 10 iterations ***

         #    Occupation            Energy/Eh            Energy/eV
      -------------------------------------------------------------
         1        2.0000           -0.5707933             -15.5321
       ...           ...                  ...                  ...
        13        2.0000           -0.2736895              -7.4475
        14        2.0000           -0.2561412              -6.9700
        15        2.0000           -0.2506770              -6.8213
        16        2.0000           -0.2484934              -6.7619
        17        2.0000           -0.2420075              -6.5854
        18        2.0000           -0.2397812              -6.5248
        19        2.0000           -0.2286987              -6.2232 (HOMO)
        20                          0.0490863               1.3357 (LUMO)
        21                          0.1089474               2.9646
        22                          0.1850311               5.0350
        23                          0.2260087               6.1500
        24                          0.2590438               7.0489
       ...                                ...                  ...
        32                          1.2807143              34.8500
      -------------------------------------------------------------
                  HL-Gap            0.2777850 Eh            7.5589 eV
             Fermi-level           -0.0898062 Eh           -2.4438 eV

 SCC (total)                   0 d,  0 h,  0 min,  0.356 sec
 SCC setup                      ...        0 min,  0.011 sec (  3.142%)
 Dispersion                     ...        0 min,  0.014 sec (  3.984%)
 classical contributions        ...        0 min,  0.005 sec (  1.539%)
 integral evaluation            ...        0 min,  0.027 sec (  7.495%)
 iterations                     ...        0 min,  0.229 sec ( 64.313%)
 molecular gradient             ...        0 min,  0.069 sec ( 19.477%)
 printout                       ...        0 min,  0.000 sec (  0.044%)

         :::::::::::::::::::::::::::::::::::::::::::::::::::::
         ::                     SUMMARY                     ::
         :::::::::::::::::::::::::::::::::::::::::::::::::::::
         :: total energy             -23.453848140328 Eh    ::
         :: gradient norm              0.057528217638 Eh/a0 ::
         :: HOMO-LUMO gap              7.558913411436 eV    ::
         ::.................................................::
         :: SCC energy               -23.561391964224 Eh    ::
         :: -> isotropic ES            0.216117606286 Eh    ::
         :: -> anisotropic ES         -0.016383912602 Eh    ::
         :: -> anisotropic XC         -0.004192090838 Eh    ::
         :: -> dispersion             -0.006923445962 Eh    ::
         :: repulsion energy           0.107541513230 Eh    ::
         :: add. restraining           0.000000000000 Eh    ::
         :: total charge              -1.000000000000 e     ::
         :::::::::::::::::::::::::::::::::::::::::::::::::::::

      ----------------------------------------------------------- 
     |                   =====================                   |
     |                        A N C O P T                        |
     |                   =====================                   |
     |               Approximate Normal Coordinate               |
     |                Rational Function Optimizer                |
      ----------------------------------------------------------- 

          ...................................................
          :                      SETUP                      :
          :.................................................:
          :   optimization level            normal          :
          :   max. optcycles                   200          :
          :   ANC micro-cycles                  20          :
          :   degrees of freedom                21          :
          :.................................................:
          :   RF solver                   davidson          :
          :   write xtbopt.log                true          :
          :   linear?                        false          :
          :   energy convergence         0.5000000E-05 Eh   :
          :   grad. convergence          0.1000000E-02 Eh/α :
          :   maximium RF displ.         1.0000000          :
          :   Hlow (freq-cutoff)         0.1000000E-01      :
          :   Hmax (freq-cutoff)         5.0000000          :
          :   S6 in model hess.         20.0000000          :
          ...................................................

generating ANC from model Hessian ...
Using Lindh-Hessian (1995)
 Shifting diagonal of input Hessian by    0.0000000000000000     
 Lowest  eigenvalues of input Hessian
    0.000000    0.000000    0.000000    0.000000    0.000000    0.000000
    0.018892    0.036072    0.063504    0.077181    0.091269    0.106207
    0.132921    0.214439    0.308729    0.341603    0.481671    0.526192
 Highest eigenvalues
    1.359518    1.480880    1.807806    3.003532    3.846610   11.036270


........................................................................
.............................. CYCLE    1 ..............................
........................................................................
   1    -23.5613920 -0.235614E+02  0.471E-05    7.56       0.0  T
   2    -23.5613920 -0.152056E-11  0.323E-05    7.56    1031.5  T
   3    -23.5613920 -0.146372E-11  0.115E-05    7.56    2900.8  T
     SCC iter.                  ...        0 min,  0.073 sec
     gradient                   ...        0 min,  0.072 sec
 * total energy  :   -23.4538481 Eh     change       -0.2244960E-10 Eh
   gradient norm :     0.0575285 Eh/α   predicted     0.0000000E+00 (-100.00%)
   displ. norm   :     0.2686112 α      lambda       -0.6146852E-02
   maximum displ.:     0.2272389 α      in ANC's #1, #2, #5, ...

........................................................................
.............................. CYCLE    2 ..............................
........................................................................
   1    -23.5708704 -0.235709E+02  0.300E-01    8.01       0.0  T
   2    -23.5709321 -0.617385E-04  0.183E-01    7.99       1.0  T
   3    -23.5709358 -0.364992E-05  0.744E-02    7.99       1.0  T
   4    -23.5709363 -0.562292E-06  0.177E-02    7.99       1.9  T
   5    -23.5709364 -0.900128E-07  0.328E-03    7.99      10.2  T
   6    -23.5709364 -0.510590E-08  0.207E-03    7.99      16.1  T
   7    -23.5709364 -0.333969E-08  0.281E-04    7.99     118.5  T
   8    -23.5709364 -0.720028E-10  0.173E-04    7.99     192.6  T
     SCC iter.                  ...        0 min,  0.141 sec
     gradient                   ...        0 min,  0.060 sec
 * total energy  :   -23.4584358 Eh     change       -0.4587621E-02 Eh
   gradient norm :     0.0325607 Eh/α   predicted    -0.3295179E-02 ( -28.17%)
   displ. norm   :     0.2706598 α      lambda       -0.3289559E-02
   maximum displ.:     0.2521983 α      in ANC's #1, #14, #9, ...

........................................................................
.............................. CYCLE    3 ..............................
........................................................................
   1    -23.5791539 -0.235792E+02  0.265E-01    8.47       0.0  T
   2    -23.5792012 -0.472934E-04  0.164E-01    8.45       1.0  T
   3    -23.5792044 -0.323846E-05  0.625E-02    8.44       1.0  T
   4    -23.5792048 -0.391038E-06  0.155E-02    8.44       2.2  T
   5    -23.5792049 -0.849269E-07  0.293E-03    8.45      11.4  T
   6    -23.5792049 -0.777647E-08  0.158E-03    8.45      21.0  T
   7    -23.5792049 -0.384249E-08  0.395E-04    8.45      84.4  T
   8    -23.5792049 -0.222933E-09  0.181E-04    8.45     183.9  T
     SCC iter.                  ...        0 min,  0.192 sec
     gradient                   ...        0 min,  0.065 sec
 * total energy  :   -23.4601138 Eh     change       -0.1678016E-02 Eh
   gradient norm :     0.0131719 Eh/α   predicted    -0.1765271E-02 (   5.20%)
   displ. norm   :     0.0289850 α      lambda       -0.1228163E-03
   maximum displ.:     0.0162469 α      in ANC's #3, #2, #5, ...

........................................................................
.............................. CYCLE    4 ..............................
........................................................................
   1    -23.5801787 -0.235802E+02  0.525E-02    8.49       0.0  T
   2    -23.5801797 -0.986135E-06  0.276E-02    8.49       1.2  T
   3    -23.5801798 -0.791590E-07  0.905E-03    8.49       3.7  T
   4    -23.5801798 -0.533135E-08  0.266E-03    8.49      12.5  T
   5    -23.5801798 -0.132774E-08  0.385E-04    8.49      86.5  T
   6    -23.5801798 -0.106482E-09  0.213E-04    8.49     156.2  T
     SCC iter.                  ...        0 min,  0.135 sec
     gradient                   ...        0 min,  0.071 sec
 * total energy  :   -23.4601800 Eh     change       -0.6625092E-04 Eh
   gradient norm :     0.0106441 Eh/α   predicted    -0.6145981E-04 (  -7.23%)
   displ. norm   :     0.0237375 α      lambda       -0.4675092E-04
   maximum displ.:     0.0152224 α      in ANC's #1, #5, #3, ...

........................................................................
.............................. CYCLE    5 ..............................
........................................................................
   1    -23.5806444 -0.235806E+02  0.424E-02    8.53       0.0  T
   2    -23.5806457 -0.131158E-05  0.226E-02    8.53       1.5  T
   3    -23.5806458 -0.543514E-07  0.101E-02    8.53       3.3  T
   4    -23.5806458 -0.951878E-08  0.261E-03    8.52      12.8  T
   5    -23.5806458 -0.124302E-08  0.382E-04    8.53      87.2  T
   6    -23.5806458 -0.682476E-10  0.228E-04    8.53     146.2  T
     SCC iter.                  ...        0 min,  0.128 sec
     gradient                   ...        0 min,  0.055 sec
 * total energy  :   -23.4602014 Eh     change       -0.2139800E-04 Eh
   gradient norm :     0.0041978 Eh/α   predicted    -0.2338878E-04 (   9.30%)
   displ. norm   :     0.0082626 α      lambda       -0.7359510E-05
   maximum displ.:     0.0057871 α      in ANC's #1, #6, #4, ...

........................................................................
.............................. CYCLE    6 ..............................
........................................................................
   1    -23.5806713 -0.235807E+02  0.887E-03    8.53       0.0  T
   2    -23.5806714 -0.827567E-07  0.570E-03    8.53       5.9  T
   3    -23.5806714 -0.229789E-08  0.269E-03    8.53      12.4  T
   4    -23.5806714 -0.596625E-09  0.518E-04    8.53      64.3  T
   5    -23.5806714 -0.599876E-10  0.121E-04    8.53     276.1  T
     SCC iter.                  ...        0 min,  0.107 sec
     gradient                   ...        0 min,  0.056 sec
 * total energy  :   -23.4602062 Eh     change       -0.4728681E-05 Eh
   gradient norm :     0.0014635 Eh/α   predicted    -0.3679515E-05 ( -22.19%)
   displ. norm   :     0.0059838 α      lambda       -0.1817870E-05
   maximum displ.:     0.0038713 α      in ANC's #1, #6, #4, ...

........................................................................
.............................. CYCLE    7 ..............................
........................................................................
   1    -23.5806344 -0.235806E+02  0.861E-03    8.53       0.0  T
   2    -23.5806346 -0.143154E-06  0.605E-03    8.53       5.5  T
   3    -23.5806346 -0.210941E-08  0.362E-03    8.53       9.2  T
   4    -23.5806346 -0.850235E-09  0.543E-04    8.53      61.4  T
   5    -23.5806346 -0.612097E-10  0.127E-04    8.53     262.2  T
     SCC iter.                  ...        0 min,  0.127 sec
     gradient                   ...        0 min,  0.075 sec
 * total energy  :   -23.4602073 Eh     change       -0.1142561E-05 Eh
   gradient norm :     0.0006587 Eh/α   predicted    -0.9091372E-06 ( -20.43%)
   displ. norm   :     0.0018349 α      lambda       -0.2777200E-06
   maximum displ.:     0.0010994 α      in ANC's #4, #6, #1, ...

   *** GEOMETRY OPTIMIZATION CONVERGED AFTER 7 ITERATIONS ***

------------------------------------------------------------------------
 total energy gain   :        -0.0063592 Eh       -3.9904 kcal/mol
 total RMSD          :         0.1832415 a0        0.0970 Å
 total power (kW/mol):        -2.3851378 (step)   -9.6326 (real)
------------------------------------------------------------------------

 ANCopt (total)                0 d,  0 h,  0 min,  1.733 sec
 optimizer setup                ...        0 min,  0.000 sec (  0.003%)
 model hessian                  ...        0 min,  0.002 sec (  0.133%)
 ANC generation                 ...        0 min,  0.000 sec (  0.023%)
 coordinate transformation      ...        0 min,  0.000 sec (  0.003%)
 single point calculation       ...        0 min,  1.684 sec ( 97.142%)
 optimization log               ...        0 min,  0.001 sec (  0.034%)
 hessian update                 ...        0 min,  0.044 sec (  2.555%)
 rational function              ...        0 min,  0.002 sec (  0.088%)

================
 final structure:
================
9
 xtb: 6.5.1 (b24c23e)
S           -0.36914876678494        0.08160512691189        0.02845080219738
O           -0.53454190133514        0.26496563489874       -1.40475725680741
O           -0.55344316592511       -1.29345302006656        0.45884727896797
O            1.25545019444620        0.39173119844307        0.31051825361364
C            1.97828305212196       -0.52586509272425       -0.43780985041407
O           -1.04303360643359        1.06778074858447        0.84340586411696
H            1.41145092259902       -0.76886142247622       -1.34113690133433
H            2.94816818145951       -0.09043354013554       -0.70098697568752
H            2.13250009985209       -1.45226164343561        0.13053278534740

 Bond Distances (Angstroems)
 ---------------------------
S1-O2=1.4543         S1-O3=1.4526         S1-O4=1.6778         S1-O6=1.4460         O2-S1=1.4543         O3-S1=1.4526         
O4-S1=1.6778         O4-C5=1.3873         C5-O4=1.3873         C5-H7=1.0938         C5-H8=1.0952         C5-H9=1.0977         
O6-S1=1.4460         H7-C5=1.0938         H8-C5=1.0952         H9-C5=1.0977         
 C  H  Rav=1.0956 sigma=0.0016  Rmin=1.0938  Rmax=1.0977     3
 O  C  Rav=1.3873 sigma=0.0000  Rmin=1.3873  Rmax=1.3873     1
 S  O  Rav=1.5077 sigma=0.0983  Rmin=1.4460  Rmax=1.6778     4

 selected bond angles (degree)
 --------------------
O3-S1-O2=113.39                O4-S1-O2=104.62                O4-S1-O3=104.36                O6-S1-O2=114.61                
O6-S1-O3=114.80                O6-S1-O4=103.32                C5-O4-S1=106.95                H7-C5-O4=108.81                
H8-C5-O4=109.15                H8-C5-H7=110.41                H9-C5-O4=110.62                H9-C5-H7=108.23                
H9-C5-H8=109.60                

 selected dihedral angles (degree)
 ---------------------------------
C5-O4-S1-O2=299.99            C5-O4-S1-O3= 59.34            C5-O4-S1-O6=179.71            H7-C5-O4-S1= 31.05            
H8-C5-O4-S1=151.61            H9-C5-O4-S1=272.28            
           -------------------------------------------------
          |                Final Singlepoint                |
           -------------------------------------------------

          ...................................................
          :                      SETUP                      :
          :.................................................:
          :  # basis functions                  33          :
          :  # atomic orbitals                  32          :
          :  # shells                           16          :
          :  # electrons                        38          :
          :  max. iterations                   250          :
          :  Hamiltonian                  GFN2-xTB          :
          :  restarted?                      false          :
          :  GBSA solvation                  false          :
          :  PC potential                    false          :
          :  electronic temp.          300.0000000     K    :
          :  accuracy                    1.0000000          :
          :  -> integral cutoff          0.2500000E+02      :
          :  -> integral neglect         0.1000000E-07      :
          :  -> SCF convergence          0.1000000E-05 Eh   :
          :  -> wf. convergence          0.1000000E-03 e    :
          :  Broyden damping             0.4000000          :
          ...................................................

 iter      E             dE          RMSdq      gap      omega  full diag
   1    -23.5806346 -0.235806E+02  0.658E-05    8.53       0.0  T
   2    -23.5806346 -0.141043E-11  0.440E-05    8.53     756.8  T
   3    -23.5806346 -0.143174E-11  0.874E-06    8.53    3813.0  T

   *** convergence criteria satisfied after 3 iterations ***

         #    Occupation            Energy/Eh            Energy/eV
      -------------------------------------------------------------
         1        2.0000           -0.5692739             -15.4907
       ...           ...                  ...                  ...
        13        2.0000           -0.2722675              -7.4088
        14        2.0000           -0.2586463              -7.0381
        15        2.0000           -0.2550450              -6.9401
        16        2.0000           -0.2514260              -6.8416
        17        2.0000           -0.2398960              -6.5279
        18        2.0000           -0.2388944              -6.5006
        19        2.0000           -0.2280174              -6.2047 (HOMO)
        20                          0.0854764               2.3259 (LUMO)
        21                          0.1444746               3.9314
        22                          0.2121534               5.7730
        23                          0.2369546               6.4479
        24                          0.2720743               7.4035
       ...                                ...                  ...
        32                          1.4164576              38.5438
      -------------------------------------------------------------
                  HL-Gap            0.3134938 Eh            8.5306 eV
             Fermi-level           -0.0712705 Eh           -1.9394 eV

 SCC (total)                   0 d,  0 h,  0 min,  0.138 sec
 SCC setup                      ...        0 min,  0.011 sec (  7.990%)
 Dispersion                     ...        0 min,  0.013 sec (  9.596%)
 classical contributions        ...        0 min,  0.005 sec (  3.840%)
 integral evaluation            ...        0 min,  0.010 sec (  7.233%)
 iterations                     ...        0 min,  0.053 sec ( 38.043%)
 molecular gradient             ...        0 min,  0.046 sec ( 33.198%)
 printout                       ...        0 min,  0.000 sec (  0.090%)

         :::::::::::::::::::::::::::::::::::::::::::::::::::::
         ::                     SUMMARY                     ::
         :::::::::::::::::::::::::::::::::::::::::::::::::::::
         :: total energy             -23.460207297442 Eh    ::
         :: gradient norm              0.000658802997 Eh/a0 ::
         :: HOMO-LUMO gap              8.530599610999 eV    ::
         ::.................................................::
         :: SCC energy               -23.580634568554 Eh    ::
         :: -> isotropic ES            0.213889924933 Eh    ::
         :: -> anisotropic ES         -0.023651112407 Eh    ::
         :: -> anisotropic XC         -0.005759649663 Eh    ::
         :: -> dispersion             -0.007080227105 Eh    ::
         :: repulsion energy           0.120424729060 Eh    ::
         :: add. restraining           0.000000710443 Eh    ::
         :: total charge              -1.000000000000 e     ::
         :::::::::::::::::::::::::::::::::::::::::::::::::::::

           -------------------------------------------------
          |                Property Printout                |
           -------------------------------------------------

    * Orbital Energies and Occupations

         #    Occupation            Energy/Eh            Energy/eV
      -------------------------------------------------------------
         1        2.0000           -0.5692739             -15.4907
       ...           ...                  ...                  ...
         7        2.0000           -0.3898259             -10.6077
         8        2.0000           -0.3874492             -10.5430
         9        2.0000           -0.3816414             -10.3850
        10        2.0000           -0.3238825              -8.8133
        11        2.0000           -0.3174293              -8.6377
        12        2.0000           -0.3128672              -8.5136
        13        2.0000           -0.2722675              -7.4088
        14        2.0000           -0.2586463              -7.0381
        15        2.0000           -0.2550450              -6.9401
        16        2.0000           -0.2514260              -6.8416
        17        2.0000           -0.2398960              -6.5279
        18        2.0000           -0.2388944              -6.5006
        19        2.0000           -0.2280174              -6.2047 (HOMO)
        20                          0.0854764               2.3259 (LUMO)
        21                          0.1444746               3.9314
        22                          0.2121534               5.7730
        23                          0.2369546               6.4479
        24                          0.2720743               7.4035
        25                          0.2961780               8.0594
        26                          0.3419207               9.3041
        27                          0.3500833               9.5263
        28                          0.4297036              11.6928
        29                          0.4507574              12.2657
        30                          0.9444638              25.7002
       ...                                ...                  ...
        32                          1.4164576              38.5438
      -------------------------------------------------------------
                  HL-Gap            0.3134938 Eh            8.5306 eV
             Fermi-level           -0.0712705 Eh           -1.9394 eV

     #   Z          covCN         q      C6AA      α(0)
     1  16 S        3.738     1.436    95.018    16.406
     2   8 O        0.860    -0.709    28.954     7.214
     3   8 O        0.860    -0.708    28.917     7.210
     4   8 O        1.706    -0.483    22.500     6.404
     5   6 C        3.928     0.064    19.452     6.268
     6   8 O        0.860    -0.678    28.108     7.108
     7   1 H        0.924     0.040     2.453     2.449
     8   1 H        0.924     0.018     2.770     2.603
     9   1 H        0.924     0.020     2.739     2.588

 Mol. C6AA /au·bohr⁶  :       1570.514954
 Mol. C8AA /au·bohr⁸  :      40479.736675
 Mol. α(0) /au        :         58.250589


Wiberg/Mayer (AO) data.
largest (>0.10) Wiberg bond orders for each atom

 ---------------------------------------------------------------------------
     #   Z sym  total        # sym  WBO       # sym  WBO       # sym  WBO
 ---------------------------------------------------------------------------
     1  16 S    5.055 --     6 O    1.451     3 O    1.409     2 O    1.401
                             4 O    0.778
     2   8 O    1.727 --     1 S    1.401     3 O    0.121     6 O    0.119
     3   8 O    1.725 --     1 S    1.409     2 O    0.121     6 O    0.120
     4   8 O    2.025 --     5 C    1.008     1 S    0.778
     5   6 C    3.957 --     4 O    1.008     8 H    0.980     9 H    0.978
                             7 H    0.972
     6   8 O    1.761 --     1 S    1.451     3 O    0.120     2 O    0.119
     7   1 H    0.998 --     5 C    0.972
     8   1 H    1.000 --     5 C    0.980
     9   1 H    1.000 --     5 C    0.978
 ---------------------------------------------------------------------------

Topologies differ in total number of bonds
Writing topology from bond orders to xtbtopo.mol

molecular dipole:
                 x           y           z       tot (Debye)
 q only:        1.167      -0.307      -0.190
   full:        1.426      -0.345      -0.216       3.771
molecular quadrupole (traceless):
                xx          xy          yy          xz          yz          zz
 q only:        2.982      -0.573      -1.506      -0.648       0.381      -1.477
  q+dip:        3.157       0.266      -1.713       0.103      -0.434      -1.443
   full:        3.683      -0.105      -1.907      -0.242      -0.056      -1.776

           -------------------------------------------------
          |                Geometry Summary                 |
           -------------------------------------------------

      molecular mass/u    :      111.0969652
   center of mass at/Å    :        0.0401366       0.0078026      -0.0265067
  moments of inertia/u·Å² :        0.9917949E+02   0.1755569E+03   0.1771227E+03
rotational constants/cm⁻¹ :        0.1699709E+00   0.9602373E-01   0.9517489E-01

 * 8 selected distances

     #   Z          #   Z                                           value/Å
     1  16 S        2   8 O                                       1.4543252
     1  16 S        3   8 O                                       1.4525808
     1  16 S        4   8 O                                       1.6778148 (max)
     4   8 O        5   6 C                                       1.3872511
     1  16 S        6   8 O                                       1.4459652
     5   6 C        7   1 H                                       1.0937760 (min)
     5   6 C        8   1 H                                       1.0952352
     5   6 C        9   1 H                                       1.0977281

 * 3 distinct bonds (by element types)

   Z      Z             #   av. dist./Å        max./Å        min./Å
   1 H    6 C           3     1.0955798     1.0977281     1.0937760
   6 C    8 O           1     1.3872511     1.3872511     1.3872511
   8 O   16 S           4     1.5076715     1.6778148     1.4459652


optimized geometry written to: xtbopt.xyz


           -------------------------------------------------
          | TOTAL ENERGY              -23.460207297442 Eh   |
          | GRADIENT NORM               0.000658802997 Eh/α |
          | HOMO-LUMO GAP               8.530599610999 eV   |
           -------------------------------------------------

------------------------------------------------------------------------
 * finished run on 2022/11/03 at 12:53:59.432     
------------------------------------------------------------------------
 total:
 * wall-time:     0 d,  0 h,  0 min,  2.297 sec
 *  cpu-time:     0 d,  0 h,  0 min, 18.133 sec
 * ratio c/w:     7.895 speedup
 SCF:
 * wall-time:     0 d,  0 h,  0 min,  0.356 sec
 *  cpu-time:     0 d,  0 h,  0 min,  2.827 sec
 * ratio c/w:     7.942 speedup
 ANC optimizer:
 * wall-time:     0 d,  0 h,  0 min,  1.872 sec
 *  cpu-time:     0 d,  0 h,  0 min, 14.791 sec
 * ratio c/w:     7.900 speedup

