9
 energy: -23.460888341341 gnorm: 0.000380382301 xtb: 6.5.1 (b24c23e)
S           -0.34396152436587        0.17851281371231       -0.05904161141288
O           -0.13851366109568        0.91506684941280       -1.29493978239773
O           -0.77841597480265       -1.19308046433588       -0.26492623659776
O            1.18995690089346        0.03732588859179        0.60416583371005
C            1.94979757096212       -0.65428902053677       -0.32754084257907
O           -1.08260849714866        0.89814384232686        0.95496350393440
H            1.49550321516456       -1.63288299905862       -0.51883009146359
H            1.96968056826333       -0.09858044076032       -1.27176556900405
H            2.96424440212939       -0.77500847935217        0.06497979581065
