2022-11-03:13:00:13,6 INFO     [psi4.driver.task_planner:266] PLANNING Atomic:  keywords={'FREEZE_CORE': 'TRUE', 'function_kwargs': {}}
2022-11-03:13:00:13,13 INFO     [psi4.driver.driver:499] Compute energy(): method=wb97x-d, basis=6-311+g*, molecule=default, nre=363.9072176024927
2022-11-03:13:00:28,865 INFO     [psi4.driver.driver:502] Return energy(): -739.0048287510182
igio,
    A. Alenaizan, A. M. James, S. Lehtola, J. P. Misiewicz, M. Scheurer,
    R. A. Shaw, J. B. Schriber, Y. Xie, Z. L. Glick, D. A. Sirianni,
    J. S. O'Brien, J. M. Waldrop, A. Kumar, E. G. Hohenstein,
    B. P. Pritchard, B. R. Brooks, H. F. Schaefer III, A. Yu. Sokolov,
    K. Patkowski, A. E. DePrince III, U. Bozkaya, R. A. King,
    F. A. Evangelista, J. M. Turney, T. D. Crawford, C. D. Sherrill,
    J. Chem. Phys. 152(18) 184108 (2020). https://doi.org/10.1063/5.0006002

                            Additional Code Authors
    E. T. Seidl, C. L. Janssen, E. F. Valeev, M. L. Leininger,
    J. F. Gonthier, R. M. Richard, H. R. McAlexander, M. Saitow, X. Wang,
    P. Verma, M. H. Lechner, and A. Jiang

             Previous Authors, Complete List of Code Contributors,
                       and Citations for Specific Modules
    https://github.com/psi4/psi4/blob/master/codemeta.json
    https://github.com/psi4/psi4/graphs/contributors
    http://psicode.org/psi4manual/master/introduction.html#citing-psifour

    -----------------------------------------------------------------------


    Psi4 started on: Thursday, 03 November 2022 01:00PM

    Process ID: 9311
    Host:       DESKTOP-26BCFJT
    PSIDATADIR: /home/chase/psi4conda/share/psi4
    Memory:     500.0 MiB
    Threads:    1
    
  ==> Input File <==

--------------------------------------------------------------------------
molecule { 
-1 1
 S   -0.358029    0.054706    0.068283
 O   -0.619671    0.048375   -1.361147
 O   -0.435609   -1.261493    0.679673
 O    1.258847    0.481660    0.195605
 C    1.969509   -0.493362   -0.488540
 O   -1.039403    1.099586    0.800244
 H    1.662994   -0.503940   -1.540638
 H    3.038502   -0.273336   -0.406758
 H    1.748545   -1.476989   -0.059656
}
memory 1GB
set_num_threads(2)
psi4_io.set_default_path("/home/chase/temp/Psi4-mso4")
set freeze_core True
E, wfn = energy('wb97x-d/6-311+G*',return_wfn=True)
oeprop(wfn,"WIBERG_LOWDIN_INDICES")
clean()
--------------------------------------------------------------------------

  Memory set to 953.674 MiB by Python driver.
  Threads set to 2 by Python driver.

Scratch directory: /home/chase/temp/Psi4-mso4/

*** tstart() called on DESKTOP-26BCFJT
*** at Thu Nov  3 13:00:13 2022

   => Loading Basis Set <=

    Name: 6-311+G*
    Role: ORBITAL
    Keyword: BASIS
    atoms 1      entry S          line   430 file /home/chase/psi4conda/share/psi4/basis/6-311pgs.gbs 
    atoms 2-4, 6 entry O          line   172 file /home/chase/psi4conda/share/psi4/basis/6-311pgs.gbs 
    atoms 5      entry C          line   130 file /home/chase/psi4conda/share/psi4/basis/6-311pgs.gbs 
    atoms 7-9    entry H          line    47 file /home/chase/psi4conda/share/psi4/basis/6-311pgs.gbs 

   => WB97X-D: Empirical Dispersion <=

    Chai and Head-Gordon Dispersion Correction
    Chai, J.-D.; Head-Gordon, M. (2010), J. Chem. Phys., 132: 6615-6620

        s6 =       1.000000


         ---------------------------------------------------------
                                   SCF
               by Justin Turney, Rob Parrish, Andy Simmonett
                          and Daniel G. A. Smith
                              RKS Reference
                        2 Threads,    953 MiB Core
         ---------------------------------------------------------

  ==> Geometry <==

    Molecular point group: c1
    Full point group: C1

    Geometry (in Angstrom), charge = -1, multiplicity = 1:

       Center              X                  Y                   Z               Mass       
    ------------   -----------------  -----------------  -----------------  -----------------
         S           -0.405954720563     0.059707195022     0.074353608552    31.972071174400
         O           -0.667596720563     0.053376195022    -1.355076391448    15.994914619570
         O           -0.483534720563    -1.256491804978     0.685743608552    15.994914619570
         O            1.210921279437     0.486661195022     0.201675608552    15.994914619570
         C            1.921583279437    -0.488360804978    -0.482469391448    12.000000000000
         O           -1.087328720563     1.104587195022     0.806314608552    15.994914619570
         H            1.615068279437    -0.498938804978    -1.534567391448     1.007825032230
         H            2.990576279437    -0.268334804978    -0.400687391448     1.007825032230
         H            1.700619279437    -1.471987804978    -0.053585391448     1.007825032230

  Running in c1 symmetry.

  Rotational constants: A =      0.17009  B =      0.09651  C =      0.09577 [cm^-1]
  Rotational constants: A =   5099.21576  B =   2893.14760  C =   2871.21986 [MHz]
  Nuclear repulsion =  363.907217602492722

  Charge       = -1
  Multiplicity = 1
  Electrons    = 58
  Nalpha       = 29
  Nbeta        = 29

  ==> Algorithm <==

  SCF Algorithm Type is DF.
  DIIS enabled.
  MOM disabled.
  Fractional occupation disabled.
  Guess Type is SAD.
  Energy threshold   = 1.00e-06
  Density threshold  = 1.00e-06
  Integral threshold = 1.00e-12

  ==> Primary Basis <==

  Basis Set: 6-311+G*
    Blend: 6-311+G*
    Number of shells: 73
    Number of basis functions: 149
    Number of Cartesian functions: 155
    Spherical Harmonics?: true
    Max angular momentum: 2

  ==> DFT Potential <==

   => LibXC <=

    Version 5.1.5
    S. Lehtola, C. Steigemann, M. J. Oliveira, and M. A. Marques, SoftwareX 7, 1 (2018) (10.1016/j.softx.2017.11.002)

   => Composite Functional: WB97X-D <= 

    wB97X-D Hyb-GGA Exchange-Correlation Functional

    J.-D. Chai and M. Head-Gordon, Phys. Chem. Chem. Phys. 10, 6615 (2008) (10.1039/B810189B)

    Deriv               =              1
    GGA                 =           TRUE
    Meta                =          FALSE

    Exchange Hybrid     =           TRUE
    MP2 Hybrid          =          FALSE

   => Exchange-Correlation Functionals <=

    1.0000   wB97X-D range-separated functional

   => Exact (HF) Exchange <=

    0.7780            HF,LR [omega = 0.2000]
    0.2220               HF 

   => LibXC Density Thresholds  <==

    XC_HYB_GGA_XC_WB97X_D:  1.00E-14 

   => Molecular Quadrature <=

    Radial Scheme          =       TREUTLER
    Pruning Scheme         =           NONE
    Nuclear Scheme         =       TREUTLER

    Blocking Scheme        =         OCTREE
    BS radius alpha        =              1
    Pruning alpha          =              1
    Radial Points          =             75
    Spherical Points       =            302
    Total Points           =         194141
    Total Blocks           =           1481
    Max Points             =            256
    Max Functions          =            148
    Weights Tolerance      =       1.00E-15

   => Loading Basis Set <=

    Name: (6-311+G* AUX)
    Role: JKFIT
    Keyword: DF_BASIS_SCF
    atoms 1      entry S          line   768 file /home/chase/psi4conda/share/psi4/basis/heavy-aug-cc-pvtz-jkfit.gbs 
    atoms 2-4, 6 entry O          line   324 file /home/chase/psi4conda/share/psi4/basis/heavy-aug-cc-pvtz-jkfit.gbs 
    atoms 5      entry C          line   200 file /home/chase/psi4conda/share/psi4/basis/heavy-aug-cc-pvtz-jkfit.gbs 
    atoms 7-9    entry H          line   116 file /home/chase/psi4conda/share/psi4/basis/heavy-aug-cc-pvtz-jkfit.gbs 

  ==> Integral Setup <==

  DFHelper Memory: AOs need 0.375 GiB; user supplied 0.375 GiB. Using in-core AOs.

  ==> MemDFJK: Density-Fitted J/K Matrices <==

    J tasked:                   Yes
    K tasked:                   Yes
    wK tasked:                  Yes
    Omega:                2.000E-01
    OpenMP threads:               2
    Memory [MiB]:               383
    Algorithm:                 Core
    Schwarz Cutoff:           1E-12
    Mask sparsity (%):       2.5404
    Fitting Condition:        1E-10

   => Auxiliary Basis Set <=

  Basis Set: (6-311+G* AUX)
    Blend: HEAVY-AUG-CC-PVTZ-JKFIT
    Number of shells: 222
    Number of basis functions: 756
    Number of Cartesian functions: 940
    Spherical Harmonics?: true
    Max angular momentum: 4

  Cached 50.0% of DFT collocation blocks in 0.304 [GiB].

  Minimum eigenvalue in the overlap matrix is 3.4391036789E-04.
  Reciprocal condition number of the overlap matrix is 3.5044009950E-05.
    Using symmetric orthogonalization.

  ==> Pre-Iterations <==

  SCF Guess: Superposition of Atomic Densities via on-the-fly atomic UHF (no occupation information).

   -------------------------
    Irrep   Nso     Nmo    
   -------------------------
     A        149     149 
   -------------------------
    Total     149     149
   -------------------------

  ==> Iterations <==

                           Total Energy        Delta E     RMS |[F,P]|

   @DF-RKS iter SAD:  -738.96663094376311   -7.38967e+02   0.00000e+00 
   @DF-RKS iter   1:  -738.52833271869497    4.38298e-01   7.81538e-03 ADIIS/DIIS
   @DF-RKS iter   2:  -738.45760667520926    7.07260e-02   8.78123e-03 ADIIS/DIIS
   @DF-RKS iter   3:  -739.00023798122709   -5.42631e-01   7.95057e-04 ADIIS/DIIS
   @DF-RKS iter   4:  -739.00420525613276   -3.96727e-03   2.71614e-04 ADIIS/DIIS
   @DF-RKS iter   5:  -739.00473147454738   -5.26218e-04   1.12505e-04 ADIIS/DIIS
   @DF-RKS iter   6:  -739.00482283225278   -9.13577e-05   2.48177e-05 DIIS
   @DF-RKS iter   7:  -739.00482849100138   -5.65875e-06   4.44391e-06 DIIS
   @DF-RKS iter   8:  -739.00482872641282   -2.35411e-07   1.45975e-06 DIIS
   @DF-RKS iter   9:  -739.00482875101818   -2.46054e-08   3.44412e-07 DIIS
  Energy and wave function converged.


  ==> Post-Iterations <==

   Electrons on quadrature grid:
      Ntotal   =   57.9999972358 ; deviation = -2.764e-06 

    Orbital Energies [Eh]
    ---------------------

    Doubly Occupied:                                                      

       1A    -89.061712     2A    -19.112510     3A    -19.043666  
       4A    -19.043484     5A    -19.043032     6A    -10.178166  
       7A     -8.073922     8A     -6.023225     9A     -6.020958  
      10A     -6.020811    11A     -1.087167    12A     -0.974537  
      13A     -0.918943    14A     -0.917728    15A     -0.646283  
      16A     -0.518100    17A     -0.440954    18A     -0.411804  
      19A     -0.406796    20A     -0.373630    21A     -0.355238  
      22A     -0.316894    23A     -0.256312    24A     -0.253689  
      25A     -0.239940    26A     -0.236897    27A     -0.208371  
      28A     -0.195563    29A     -0.165873  

    Virtual:                                                              

      30A      0.180423    31A      0.217574    32A      0.223269  
      33A      0.229501    34A      0.256745    35A      0.259163  
      36A      0.260371    37A      0.300319    38A      0.337548  
      39A      0.348937    40A      0.360365    41A      0.374537  
      42A      0.384261    43A      0.414442    44A      0.419613  
      45A      0.422956    46A      0.443536    47A      0.446947  
      48A      0.467963    49A      0.476661    50A      0.487574  
      51A      0.496384    52A      0.501687    53A      0.503050  
      54A      0.516797    55A      0.519668    56A      0.523984  
      57A      0.532213    58A      0.550508    59A      0.567507  
      60A      0.609746    61A      0.612069    62A      0.633892  
      63A      0.647423    64A      0.684087    65A      0.695978  
      66A      0.728788    67A      0.785393    68A      0.861223  
      69A      0.861907    70A      0.911978    71A      0.954408  
      72A      0.998957    73A      1.082743    74A      1.206790  
      75A      1.227128    76A      1.245975    77A      1.266371  
      78A      1.293116    79A      1.334681    80A      1.339244  
      81A      1.374205    82A      1.393557    83A      1.401482  
      84A      1.413715    85A      1.416756    86A      1.438433  
      87A      1.475137    88A      1.485944    89A      1.532585  
      90A      1.596085    91A      1.629621    92A      1.776619  
      93A      1.801596    94A      1.841431    95A      1.845048  
      96A      1.897409    97A      1.981333    98A      2.057719  
      99A      2.084393   100A      2.085534   101A      2.172364  
     102A      2.670019   103A      2.672804   104A      2.737133  
     105A      3.033585   106A      3.039380   107A      3.093492  
     108A      3.095323   109A      3.102043   110A      3.111098  
     111A      3.124240   112A      3.127565   113A      3.155230  
     114A      3.171990   115A      3.223409   116A      3.288388  
     117A      3.319581   118A      3.342570   119A      3.449746  
     120A      3.457321   121A      3.458707   122A      3.511552  
     123A      3.538713   124A      3.743338   125A      3.890492  
     126A      3.893158   127A      4.174670   128A      5.232962  
     129A      5.259988   130A      5.294736   131A      5.295672  
     132A      5.318468   133A      5.325584   134A      5.337398  
     135A      5.337843   136A      5.440738   137A      5.592972  
     138A      5.621162   139A      5.699008   140A      8.455850  
     141A     17.609975   142A     17.740881   143A     17.778901  
     144A     23.845183   145A     50.167192   146A     50.197318  
     147A     50.200763   148A     50.260586   149A    189.625920  

    Final Occupation by Irrep:
              A 
    DOCC [    29 ]

  @DF-RKS Final Energy:  -739.00482875101818

   => Energetics <=

    Nuclear Repulsion Energy =            363.9072176024927217
    One-Electron Energy =               -1752.1055809531449086
    Two-Electron Energy =                 696.9081425244587535
    DFT Exchange-Correlation Energy =     -47.7124366274212832
    Empirical Dispersion Energy =          -0.0021712974032981
    VV10 Nonlocal Energy =                  0.0000000000000000
    Total Energy =                       -739.0048287510180671

Computation Completed


Properties will be evaluated at   0.000000,   0.000000,   0.000000 [a0]

Properties computed using the SCF density matrix


 Multipole Moments:

 ------------------------------------------------------------------------------------
     Multipole            Electronic (a.u.)      Nuclear  (a.u.)        Total (a.u.)
 ------------------------------------------------------------------------------------

 L = 1.  Multiply by 2.5417464519 to convert [e a0] to [Debye]
 Dipole X            :         -4.5036904            5.8962799            1.3925894
 Dipole Y            :          1.7630919           -2.0957987           -0.3327068
 Dipole Z            :          1.5287091           -1.8608876           -0.3321786
 Magnitude           :                                                    1.4698101

 ------------------------------------------------------------------------------------

*** tstop() called on DESKTOP-26BCFJT at Thu Nov  3 13:00:28 2022
Module time:
	user time   =      30.76 seconds =       0.51 minutes
	system time =       0.47 seconds =       0.01 minutes
	total time  =         15 seconds =       0.25 minutes
Total time:
	user time   =      30.76 seconds =       0.51 minutes
	system time =       0.47 seconds =       0.01 minutes
	total time  =         15 seconds =       0.25 minutes


Properties will be evaluated at   0.000000,   0.000000,   0.000000 [a0]
OEProp: No title given, name of density matrix used for the following properties is 'SCF density'


  Wiberg Bond Indices using Orthogonal Lowdin Orbitals:

  Irrep: 1 Size: 9 x 9

                 1                   2                   3                   4                   5

    1     0.00000000000000     1.76127843229382     1.76021007795910     0.95490774222776     0.11192346673473
    2     1.76127843229382     0.00000000000000     0.19545037358279     0.15473641374983     0.07847029353210
    3     1.76021007795910     0.19545037358279     0.00000000000000     0.15425176185297     0.07965947117585
    4     0.95490774222776     0.15473641374983     0.15425176185297     0.00000000000000     1.37499099436763
    5     0.11192346673473     0.07847029353210     0.07965947117585     1.37499099436763     0.00000000000000
    6     1.80951701060795     0.18867775115051     0.18862056638291     0.15889854289442     0.02984163827511
    7     0.02112970772242     0.01929002858236     0.00366655056553     0.05758003764067     0.88520584351106
    8     0.01517341348917     0.00214378282525     0.00198615331332     0.05902734345430     0.90569507234423
    9     0.02233574541844     0.00411873617234     0.02094390388710     0.05676638804850     0.88273622881585

                 6                   7                   8                   9

    1     1.80951701060795     0.02112970772242     0.01517341348917     0.02233574541844
    2     0.18867775115051     0.01929002858236     0.00214378282525     0.00411873617234
    3     0.18862056638291     0.00366655056553     0.00198615331332     0.02094390388710
    4     0.15889854289442     0.05758003764067     0.05902734345430     0.05676638804850
    5     0.02984163827511     0.88520584351106     0.90569507234423     0.88273622881585
    6     0.00000000000000     0.00125562770768     0.00279874663696     0.00130617646531
    7     0.00125562770768     0.00000000000000     0.00963878099353     0.00755923576528
    8     0.00279874663696     0.00963878099353     0.00000000000000     0.00973998860024
    9     0.00130617646531     0.00755923576528     0.00973998860024     0.00000000000000



  Atomic Valences: 

 #  #
 Irrep: 1
      1:    6.456475596453396
      2:    2.404165811889003
      3:    2.404788858719570
      4:    2.971159224236075
      5:    4.348523008756552
      6:    2.380916060120853
      7:    1.005325812488520
      8:    1.006203281656991
      9:    1.005506403173067


    Psi4 stopped on: Thursday, 03 November 2022 01:00PM
    Psi4 wall time for execution: 0:00:15.92

*** Psi4 exiting successfully. Buy a developer a beer!
