      -----------------------------------------------------------      
     |                   =====================                   |     
     |                           x T B                           |     
     |                   =====================                   |     
     |                         S. Grimme                         |     
     |          Mulliken Center for Theoretical Chemistry        |     
     |                    University of Bonn                     |     
      -----------------------------------------------------------      

   * xtb version 6.5.1 (b24c23e) compiled by 'conda@728c89f4b128' on 2022-07-12

   xtb is free software: you can redistribute it and/or modify it under
   the terms of the GNU Lesser General Public License as published by
   the Free Software Foundation, either version 3 of the License, or
   (at your option) any later version.
   
   xtb is distributed in the hope that it will be useful,
   but WITHOUT ANY WARRANTY; without even the implied warranty of
   MERCHANTABILITY or FITNESS FOR A PARTICULAR PURPOSE.  See the
   GNU Lesser General Public License for more details.
   
   Cite this work as:
   * C. Bannwarth, E. Caldeweyher, S. Ehlert, A. Hansen, P. Pracht,
     J. Seibert, S. Spicher, S. Grimme, WIREs Comput. Mol. Sci., 2020, 11,
     e01493. DOI: 10.1002/wcms.1493
   
   for GFN2-xTB:
   * C. Bannwarth, S. Ehlert and S. Grimme., J. Chem. Theory Comput., 2019,
     15, 1652-1671. DOI: 10.1021/acs.jctc.8b01176
   for GFN1-xTB:
   * S. Grimme, C. Bannwarth, P. Shushkov, J. Chem. Theory Comput., 2017,
     13, 1989-2009. DOI: 10.1021/acs.jctc.7b00118
   for GFN0-xTB:
   * P. Pracht, E. Caldeweyher, S. Ehlert, S. Grimme, ChemRxiv, 2019, preprint.
     DOI: 10.26434/chemrxiv.8326202.v1
   for GFN-FF:
   * S. Spicher and S. Grimme, Angew. Chem. Int. Ed., 2020, 59, 15665-15673.
     DOI: 10.1002/anie.202004239
   
   for ALPB and GBSA implicit solvation:
   * S. Ehlert, M. Stahn, S. Spicher, S. Grimme, J. Chem. Theory Comput.,
     2021, 17, 4250-4261. DOI: 10.1021/acs.jctc.1c00471
   
   for DFT-D4:
   * E. Caldeweyher, C. Bannwarth and S. Grimme, J. Chem. Phys., 2017,
     147, 034112. DOI: 10.1063/1.4993215
   * E. Caldeweyher, S. Ehlert, A. Hansen, H. Neugebauer, S. Spicher,
     C. Bannwarth and S. Grimme, J. Chem. Phys., 2019, 150, 154122.
     DOI: 10.1063/1.5090222
   * E. Caldeweyher, J.-M. Mewes, S. Ehlert and S. Grimme, Phys. Chem. Chem. Phys.
     2020, 22, 8499-8512. DOI: 10.1039/D0CP00502A
   
   for sTDA-xTB:
   * S. Grimme and C. Bannwarth, J. Chem. Phys., 2016, 145, 054103.
     DOI: 10.1063/1.4959605
   
   in the mass-spec context:
   * V. Asgeirsson, C. Bauer and S. Grimme, Chem. Sci., 2017, 8, 4879.
     DOI: 10.1039/c7sc00601b
   * J. Koopman and S. Grimme, ACS Omega 2019, 4, 12, 15120-15133.
     DOI: 10.1021/acsomega.9b02011
   
   for metadynamics refer to:
   * S. Grimme, J. Chem. Theory Comput., 2019, 155, 2847-2862
     DOI: 10.1021/acs.jctc.9b00143
   
   for SPH calculations refer to:
   * S. Spicher and S. Grimme, J. Chem. Theory Comput., 2021, 17, 1701-1714
     DOI: 10.1021/acs.jctc.0c01306
   
   with help from (in alphabetical order)
   P. Atkinson, C. Bannwarth, F. Bohle, G. Brandenburg, E. Caldeweyher
   M. Checinski, S. Dohm, S. Ehlert, S. Ehrlich, I. Gerasimov, C. Hölzer
   A. Katbashev, J. Koopman, C. Lavigne, S. Lehtola, F. März, M. Müller,
   F. Musil, H. Neugebauer, J. Pisarek, C. Plett, P. Pracht, F. Pultar,
   J. Seibert, P. Shushkov, S. Spicher, M. Stahn, M. Steiner, T. Strunk,
   J. Stückrath, T. Rose, and J. Unsleber
   
 * started run on 2022/11/03 at 12:54:36.083     

           -------------------------------------------------
          |                Calculation Setup                |
           -------------------------------------------------

          program call               : /home/chase/psi4conda/envs/xtbenv/bin/xtb --gfn 2 --chrg -1 --uhf 0 mso4-opt-4-5-271_preQMOPTprefit_xyzformat.xyz --opt --input xtb-opt-4-5-271_constr.txt
          coordinate file            : mso4-opt-4-5-271_preQMOPTprefit_xyzformat.xyz
          omp threads                :                     8

   ID    Z sym.   atoms
    1   16 S      1
    2    8 O      2-4, 6
    3    6 C      5
    4    1 H      7-9
constraining angle 1 4 5 7 to  271.0205248°, actual value:  -88.9794752°
constraining angle 2 1 4 5 to  299.9879611°, actual value:  -60.0120389°

           -------------------------------------------------
          |                 G F N 2 - x T B                 |
           -------------------------------------------------

        Reference                      10.1021/acs.jctc.8b01176
      * Hamiltonian:
        H0-scaling (s, p, d)           1.850000    2.230000    2.230000
        zeta-weighting                 0.500000
      * Dispersion:
        s8                             2.700000
        a1                             0.520000
        a2                             5.000000
        s9                             5.000000
      * Repulsion:
        kExp                           1.500000    1.000000
        rExp                           1.000000
      * Coulomb:
        alpha                          2.000000
        third order                    shell-resolved
        anisotropic                    true
        a3                             3.000000
        a5                             4.000000
        cn-shift                       1.200000
        cn-exp                         4.000000
        max-rad                        5.000000

q/qsh data taken from xtbrestart
CAMM data taken from xtbrestart

          ...................................................
          :                      SETUP                      :
          :.................................................:
          :  # basis functions                  33          :
          :  # atomic orbitals                  32          :
          :  # shells                           16          :
          :  # electrons                        38          :
          :  max. iterations                   250          :
          :  Hamiltonian                  GFN2-xTB          :
          :  restarted?                       true          :
          :  GBSA solvation                  false          :
          :  PC potential                    false          :
          :  electronic temp.          300.0000000     K    :
          :  accuracy                    1.0000000          :
          :  -> integral cutoff          0.2500000E+02      :
          :  -> integral neglect         0.1000000E-07      :
          :  -> SCF convergence          0.1000000E-05 Eh   :
          :  -> wf. convergence          0.1000000E-03 e    :
          :  Broyden damping             0.4000000          :
          ...................................................

 iter      E             dE          RMSdq      gap      omega  full diag
   1    -23.5610567 -0.235611E+02  0.865E-01    7.51       0.0  T
   2    -23.5613599 -0.303239E-03  0.509E-01    7.55       1.0  T
   3    -23.5613866 -0.267045E-04  0.140E-01    7.56       1.0  T
   4    -23.5613888 -0.223556E-05  0.487E-02    7.56       1.0  T
   5    -23.5613893 -0.411900E-06  0.717E-03    7.56       4.7  T
   6    -23.5613893 -0.346536E-07  0.392E-03    7.56       8.5  T
   7    -23.5613893 -0.113594E-07  0.745E-04    7.56      44.7  T
   8    -23.5613893 -0.491980E-09  0.380E-04    7.56      87.8  T

   *** convergence criteria satisfied after 8 iterations ***

         #    Occupation            Energy/Eh            Energy/eV
      -------------------------------------------------------------
         1        2.0000           -0.5707720             -15.5315
       ...           ...                  ...                  ...
        13        2.0000           -0.2738879              -7.4529
        14        2.0000           -0.2560835              -6.9684
        15        2.0000           -0.2507261              -6.8226
        16        2.0000           -0.2483749              -6.7586
        17        2.0000           -0.2419907              -6.5849
        18        2.0000           -0.2397141              -6.5230
        19        2.0000           -0.2286609              -6.2222 (HOMO)
        20                          0.0491435               1.3373 (LUMO)
        21                          0.1090722               2.9680
        22                          0.1851644               5.0386
        23                          0.2260690               6.1517
        24                          0.2588854               7.0446
       ...                                ...                  ...
        32                          1.2807394              34.8507
      -------------------------------------------------------------
                  HL-Gap            0.2778044 Eh            7.5594 eV
             Fermi-level           -0.0897587 Eh           -2.4425 eV

 SCC (total)                   0 d,  0 h,  0 min,  0.310 sec
 SCC setup                      ...        0 min,  0.007 sec (  2.363%)
 Dispersion                     ...        0 min,  0.022 sec (  7.208%)
 classical contributions        ...        0 min,  0.006 sec (  1.871%)
 integral evaluation            ...        0 min,  0.033 sec ( 10.517%)
 iterations                     ...        0 min,  0.182 sec ( 58.842%)
 molecular gradient             ...        0 min,  0.059 sec ( 19.146%)
 printout                       ...        0 min,  0.000 sec (  0.045%)

         :::::::::::::::::::::::::::::::::::::::::::::::::::::
         ::                     SUMMARY                     ::
         :::::::::::::::::::::::::::::::::::::::::::::::::::::
         :: total energy             -23.453845162126 Eh    ::
         :: gradient norm              0.057301373875 Eh/a0 ::
         :: HOMO-LUMO gap              7.559441638980 eV    ::
         ::.................................................::
         :: SCC energy               -23.561389304403 Eh    ::
         :: -> isotropic ES            0.216114474303 Eh    ::
         :: -> anisotropic ES         -0.016347250365 Eh    ::
         :: -> anisotropic XC         -0.004185751741 Eh    ::
         :: -> dispersion             -0.006922104928 Eh    ::
         :: repulsion energy           0.107541823294 Eh    ::
         :: add. restraining           0.000000000000 Eh    ::
         :: total charge              -1.000000000000 e     ::
         :::::::::::::::::::::::::::::::::::::::::::::::::::::

      ----------------------------------------------------------- 
     |                   =====================                   |
     |                        A N C O P T                        |
     |                   =====================                   |
     |               Approximate Normal Coordinate               |
     |                Rational Function Optimizer                |
      ----------------------------------------------------------- 

          ...................................................
          :                      SETUP                      :
          :.................................................:
          :   optimization level            normal          :
          :   max. optcycles                   200          :
          :   ANC micro-cycles                  20          :
          :   degrees of freedom                21          :
          :.................................................:
          :   RF solver                   davidson          :
          :   write xtbopt.log                true          :
          :   linear?                        false          :
          :   energy convergence         0.5000000E-05 Eh   :
          :   grad. convergence          0.1000000E-02 Eh/α :
          :   maximium RF displ.         1.0000000          :
          :   Hlow (freq-cutoff)         0.1000000E-01      :
          :   Hmax (freq-cutoff)         5.0000000          :
          :   S6 in model hess.         20.0000000          :
          ...................................................

generating ANC from model Hessian ...
Using Lindh-Hessian (1995)
 Shifting diagonal of input Hessian by    0.0000000000000000     
 Lowest  eigenvalues of input Hessian
    0.000000    0.000000    0.000000    0.000000    0.000000    0.000000
    0.018344    0.041709    0.054207    0.077097    0.091442    0.099218
    0.134688    0.213201    0.306817    0.371010    0.481152    0.523743
 Highest eigenvalues
    1.360914    1.794696    2.066439    2.907675    4.162428    8.690098


........................................................................
.............................. CYCLE    1 ..............................
........................................................................
   1    -23.5613893 -0.235614E+02  0.128E-04    7.56       0.0  T
   2    -23.5613893 -0.113971E-10  0.884E-05    7.56     376.9  T
   3    -23.5613893 -0.125659E-10  0.270E-05    7.56    1235.1  T
     SCC iter.                  ...        0 min,  0.061 sec
     gradient                   ...        0 min,  0.067 sec
 * total energy  :   -23.4538452 Eh     change       -0.1714362E-09 Eh
   gradient norm :     0.0573015 Eh/α   predicted     0.0000000E+00 (-100.00%)
   displ. norm   :     0.2682252 α      lambda       -0.6104558E-02
   maximum displ.:     0.2260733 α      in ANC's #1, #3, #5, ...

........................................................................
.............................. CYCLE    2 ..............................
........................................................................
   1    -23.5708399 -0.235708E+02  0.304E-01    8.01       0.0  T
   2    -23.5709002 -0.602604E-04  0.184E-01    7.99       1.0  T
   3    -23.5709039 -0.366977E-05  0.696E-02    7.99       1.0  T
   4    -23.5709044 -0.501998E-06  0.176E-02    7.99       1.9  T
   5    -23.5709045 -0.880794E-07  0.335E-03    7.99      10.0  T
   6    -23.5709045 -0.546110E-08  0.211E-03    7.99      15.8  T
   7    -23.5709045 -0.335846E-08  0.276E-04    7.99     120.9  T
   8    -23.5709045 -0.676437E-10  0.169E-04    7.99     197.3  T
     SCC iter.                  ...        0 min,  0.117 sec
     gradient                   ...        0 min,  0.063 sec
 * total energy  :   -23.4584107 Eh     change       -0.4565587E-02 Eh
   gradient norm :     0.0323460 Eh/α   predicted    -0.3271876E-02 ( -28.34%)
   displ. norm   :     0.2701740 α      lambda       -0.3289261E-02
   maximum displ.:     0.2464421 α      in ANC's #1, #15, #2, ...

........................................................................
.............................. CYCLE    3 ..............................
........................................................................
   1    -23.5791335 -0.235791E+02  0.269E-01    8.47       0.0  T
   2    -23.5791807 -0.472103E-04  0.165E-01    8.45       1.0  T
   3    -23.5791840 -0.325167E-05  0.596E-02    8.44       1.0  T
   4    -23.5791843 -0.365931E-06  0.153E-02    8.44       2.2  T
   5    -23.5791844 -0.833719E-07  0.295E-03    8.45      11.3  T
   6    -23.5791844 -0.822433E-08  0.149E-03    8.45      22.3  T
   7    -23.5791844 -0.341520E-08  0.388E-04    8.45      85.8  T
   8    -23.5791844 -0.208132E-09  0.197E-04    8.45     169.3  T
     SCC iter.                  ...        0 min,  0.163 sec
     gradient                   ...        0 min,  0.056 sec
 * total energy  :   -23.4600942 Eh     change       -0.1683411E-02 Eh
   gradient norm :     0.0120980 Eh/α   predicted    -0.1764678E-02 (   4.83%)
   displ. norm   :     0.0257004 α      lambda       -0.1107901E-03
   maximum displ.:     0.0183024 α      in ANC's #3, #5, #6, ...

........................................................................
.............................. CYCLE    4 ..............................
........................................................................
   1    -23.5801240 -0.235801E+02  0.513E-02    8.49       0.0  T
   2    -23.5801251 -0.108475E-05  0.270E-02    8.49       1.2  T
   3    -23.5801251 -0.742885E-07  0.933E-03    8.49       3.6  T
   4    -23.5801251 -0.617654E-08  0.280E-03    8.49      11.9  T
   5    -23.5801251 -0.136818E-08  0.397E-04    8.49      84.0  T
   6    -23.5801251 -0.979767E-10  0.244E-04    8.49     136.6  T
     SCC iter.                  ...        0 min,  0.130 sec
     gradient                   ...        0 min,  0.066 sec
 * total energy  :   -23.4601601 Eh     change       -0.6595624E-04 Eh
   gradient norm :     0.0058347 Eh/α   predicted    -0.5543214E-04 ( -15.96%)
   displ. norm   :     0.0192759 α      lambda       -0.3421188E-04
   maximum displ.:     0.0128577 α      in ANC's #5, #1, #7, ...

........................................................................
.............................. CYCLE    5 ..............................
........................................................................
   1    -23.5806256 -0.235806E+02  0.373E-02    8.53       0.0  T
   2    -23.5806267 -0.113785E-05  0.201E-02    8.53       1.7  T
   3    -23.5806267 -0.422665E-07  0.910E-03    8.52       3.7  T
   4    -23.5806268 -0.828135E-08  0.251E-03    8.52      13.3  T
   5    -23.5806268 -0.103834E-08  0.323E-04    8.52     103.3  T
   6    -23.5806268 -0.497025E-10  0.202E-04    8.52     165.0  T
     SCC iter.                  ...        0 min,  0.158 sec
     gradient                   ...        0 min,  0.051 sec
 * total energy  :   -23.4601766 Eh     change       -0.1645613E-04 Eh
   gradient norm :     0.0033641 Eh/α   predicted    -0.1711138E-04 (   3.98%)
   displ. norm   :     0.0084437 α      lambda       -0.6179437E-05
   maximum displ.:     0.0064950 α      in ANC's #1, #3, #6, ...

........................................................................
.............................. CYCLE    6 ..............................
........................................................................
   1    -23.5806392 -0.235806E+02  0.990E-03    8.53       0.0  T
   2    -23.5806393 -0.105134E-06  0.646E-03    8.53       5.2  T
   3    -23.5806393 -0.275658E-08  0.323E-03    8.53      10.3  T
   4    -23.5806393 -0.766004E-09  0.640E-04    8.53      52.1  T
   5    -23.5806393 -0.611848E-10  0.108E-04    8.53     307.3  T
     SCC iter.                  ...        0 min,  0.102 sec
     gradient                   ...        0 min,  0.049 sec
 * total energy  :   -23.4601803 Eh     change       -0.3736050E-05 Eh
   gradient norm :     0.0013070 Eh/α   predicted    -0.3091202E-05 ( -17.26%)
   displ. norm   :     0.0052532 α      lambda       -0.1413282E-05
   maximum displ.:     0.0034229 α      in ANC's #1, #4, #6, ...

........................................................................
.............................. CYCLE    7 ..............................
........................................................................
   1    -23.5805696 -0.235806E+02  0.794E-03    8.53       0.0  T
   2    -23.5805697 -0.965716E-07  0.551E-03    8.53       6.0  T
   3    -23.5805697 -0.164329E-08  0.309E-03    8.53      10.8  T
   4    -23.5805697 -0.511687E-09  0.523E-04    8.53      63.7  T
   5    -23.5805697 -0.437588E-10  0.907E-05    8.53     367.4  T
     SCC iter.                  ...        0 min,  0.078 sec
     gradient                   ...        0 min,  0.042 sec
 * total energy  :   -23.4601812 Eh     change       -0.9133160E-06 Eh
   gradient norm :     0.0003282 Eh/α   predicted    -0.7071674E-06 ( -22.57%)
   displ. norm   :     0.0016114 α      lambda       -0.2116014E-06
   maximum displ.:     0.0008413 α      in ANC's #1, #8, #4, ...

   *** GEOMETRY OPTIMIZATION CONVERGED AFTER 7 ITERATIONS ***

------------------------------------------------------------------------
 total energy gain   :        -0.0063361 Eh       -3.9759 kcal/mol
 total RMSD          :         0.1823850 a0        0.0965 Å
 total power (kW/mol):        -2.3764748 (step)  -10.6090 (real)
------------------------------------------------------------------------

 ANCopt (total)                0 d,  0 h,  0 min,  1.568 sec
 optimizer setup                ...        0 min,  0.000 sec (  0.004%)
 model hessian                  ...        0 min,  0.001 sec (  0.080%)
 ANC generation                 ...        0 min,  0.000 sec (  0.014%)
 coordinate transformation      ...        0 min,  0.000 sec (  0.002%)
 single point calculation       ...        0 min,  1.527 sec ( 97.412%)
 optimization log               ...        0 min,  0.001 sec (  0.036%)
 hessian update                 ...        0 min,  0.037 sec (  2.391%)
 rational function              ...        0 min,  0.001 sec (  0.040%)

================
 final structure:
================
9
 xtb: 6.5.1 (b24c23e)
S           -0.34012737597709        0.22252220175744       -0.07646404309312
O           -0.01948317401149        1.09907799276882       -1.19176121247320
O           -0.82825903039096       -1.08164576479557       -0.48988932678746
O            1.13879015998051       -0.09692673717723        0.64944199955901
C            1.93531214679664       -0.70971443424913       -0.30655343737568
O           -1.10220073615727        0.84791979408474        0.98139197149186
H            1.79884540469132       -1.79830423295364       -0.28654213799888
H            1.65703602785947       -0.33313353135144       -1.29448071415547
H            2.98577056720886       -0.47458629808400       -0.09807709916705

 Bond Distances (Angstroems)
 ---------------------------
S1-O2=1.4543         S1-O3=1.4526         S1-O4=1.6781         S1-O6=1.4460         O2-S1=1.4543         O3-S1=1.4526         
O4-S1=1.6781         O4-C5=1.3870         C5-O4=1.3870         C5-H7=1.0973         C5-H8=1.0933         C5-H9=1.0965         
O6-S1=1.4460         H7-C5=1.0973         H8-C5=1.0933         H9-C5=1.0965         
 C  H  Rav=1.0957 sigma=0.0017  Rmin=1.0933  Rmax=1.0973     3
 O  C  Rav=1.3870 sigma=0.0000  Rmin=1.3870  Rmax=1.3870     1
 S  O  Rav=1.5078 sigma=0.0984  Rmin=1.4460  Rmax=1.6781     4

 selected bond angles (degree)
 --------------------
O3-S1-O2=113.39                O4-S1-O2=104.61                O4-S1-O3=104.38                O6-S1-O2=114.62                
O6-S1-O3=114.80                O6-S1-O4=103.32                C5-O4-S1=106.98                H7-C5-O4=110.75                
H8-C5-O4=108.93                H8-C5-H7=109.06                H9-C5-O4=108.93                H9-C5-H7=109.17                
H9-C5-H8=109.99                

 selected dihedral angles (degree)
 ---------------------------------
C5-O4-S1-O2=299.98            C5-O4-S1-O3= 59.34            C5-O4-S1-O6=179.72            H7-C5-O4-S1=271.05            
H8-C5-O4-S1= 30.99            H9-C5-O4-S1=150.97            
           -------------------------------------------------
          |                Final Singlepoint                |
           -------------------------------------------------

          ...................................................
          :                      SETUP                      :
          :.................................................:
          :  # basis functions                  33          :
          :  # atomic orbitals                  32          :
          :  # shells                           16          :
          :  # electrons                        38          :
          :  max. iterations                   250          :
          :  Hamiltonian                  GFN2-xTB          :
          :  restarted?                      false          :
          :  GBSA solvation                  false          :
          :  PC potential                    false          :
          :  electronic temp.          300.0000000     K    :
          :  accuracy                    1.0000000          :
          :  -> integral cutoff          0.2500000E+02      :
          :  -> integral neglect         0.1000000E-07      :
          :  -> SCF convergence          0.1000000E-05 Eh   :
          :  -> wf. convergence          0.1000000E-03 e    :
          :  Broyden damping             0.4000000          :
          ...................................................

 iter      E             dE          RMSdq      gap      omega  full diag
   1    -23.5805697 -0.235806E+02  0.535E-05    8.53       0.0  T
   2    -23.5805697 -0.100897E-11  0.357E-05    8.53     932.4  T
   3    -23.5805697 -0.111200E-11  0.831E-06    8.53    4012.3  T

   *** convergence criteria satisfied after 3 iterations ***

         #    Occupation            Energy/Eh            Energy/eV
      -------------------------------------------------------------
         1        2.0000           -0.5692815             -15.4909
       ...           ...                  ...                  ...
        13        2.0000           -0.2726322              -7.4187
        14        2.0000           -0.2586236              -7.0375
        15        2.0000           -0.2550293              -6.9397
        16        2.0000           -0.2513307              -6.8391
        17        2.0000           -0.2398885              -6.5277
        18        2.0000           -0.2388562              -6.4996
        19        2.0000           -0.2280084              -6.2044 (HOMO)
        20                          0.0853410               2.3222 (LUMO)
        21                          0.1444102               3.9296
        22                          0.2123587               5.7786
        23                          0.2369919               6.4489
        24                          0.2718917               7.3986
       ...                                ...                  ...
        32                          1.4162457              38.5380
      -------------------------------------------------------------
                  HL-Gap            0.3133494 Eh            8.5267 eV
             Fermi-level           -0.0713337 Eh           -1.9411 eV

 SCC (total)                   0 d,  0 h,  0 min,  0.167 sec
 SCC setup                      ...        0 min,  0.005 sec (  3.107%)
 Dispersion                     ...        0 min,  0.011 sec (  6.532%)
 classical contributions        ...        0 min,  0.005 sec (  2.817%)
 integral evaluation            ...        0 min,  0.021 sec ( 12.784%)
 iterations                     ...        0 min,  0.069 sec ( 41.158%)
 molecular gradient             ...        0 min,  0.056 sec ( 33.509%)
 printout                       ...        0 min,  0.000 sec (  0.076%)

         :::::::::::::::::::::::::::::::::::::::::::::::::::::
         ::                     SUMMARY                     ::
         :::::::::::::::::::::::::::::::::::::::::::::::::::::
         :: total energy             -23.460181222383 Eh    ::
         :: gradient norm              0.000328228126 Eh/a0 ::
         :: HOMO-LUMO gap              8.526672016354 eV    ::
         ::.................................................::
         :: SCC energy               -23.580569747343 Eh    ::
         :: -> isotropic ES            0.213851624879 Eh    ::
         :: -> anisotropic ES         -0.023552716958 Eh    ::
         :: -> anisotropic XC         -0.005760684438 Eh    ::
         :: -> dispersion             -0.007078280474 Eh    ::
         :: repulsion energy           0.120386155971 Eh    ::
         :: add. restraining           0.000000529313 Eh    ::
         :: total charge              -1.000000000000 e     ::
         :::::::::::::::::::::::::::::::::::::::::::::::::::::

           -------------------------------------------------
          |                Property Printout                |
           -------------------------------------------------

    * Orbital Energies and Occupations

         #    Occupation            Energy/Eh            Energy/eV
      -------------------------------------------------------------
         1        2.0000           -0.5692815             -15.4909
       ...           ...                  ...                  ...
         7        2.0000           -0.3896868             -10.6039
         8        2.0000           -0.3878621             -10.5543
         9        2.0000           -0.3816593             -10.3855
        10        2.0000           -0.3239140              -8.8141
        11        2.0000           -0.3173989              -8.6369
        12        2.0000           -0.3127117              -8.5093
        13        2.0000           -0.2726322              -7.4187
        14        2.0000           -0.2586236              -7.0375
        15        2.0000           -0.2550293              -6.9397
        16        2.0000           -0.2513307              -6.8391
        17        2.0000           -0.2398885              -6.5277
        18        2.0000           -0.2388562              -6.4996
        19        2.0000           -0.2280084              -6.2044 (HOMO)
        20                          0.0853410               2.3222 (LUMO)
        21                          0.1444102               3.9296
        22                          0.2123587               5.7786
        23                          0.2369919               6.4489
        24                          0.2718917               7.3986
        25                          0.2959574               8.0534
        26                          0.3400094               9.2521
        27                          0.3510572               9.5528
        28                          0.4296806              11.6922
        29                          0.4507365              12.2652
        30                          0.9440449              25.6888
       ...                                ...                  ...
        32                          1.4162457              38.5380
      -------------------------------------------------------------
                  HL-Gap            0.3133494 Eh            8.5267 eV
             Fermi-level           -0.0713337 Eh           -1.9411 eV

     #   Z          covCN         q      C6AA      α(0)
     1  16 S        3.737     1.436    95.027    16.407
     2   8 O        0.860    -0.709    28.950     7.214
     3   8 O        0.860    -0.707    28.911     7.209
     4   8 O        1.706    -0.482    22.499     6.404
     5   6 C        3.927     0.064    19.443     6.267
     6   8 O        0.860    -0.678    28.106     7.108
     7   1 H        0.924     0.020     2.740     2.589
     8   1 H        0.924     0.040     2.449     2.447
     9   1 H        0.924     0.017     2.782     2.609

 Mol. C6AA /au·bohr⁶  :       1570.622842
 Mol. C8AA /au·bohr⁸  :      40481.098374
 Mol. α(0) /au        :         58.253233


Wiberg/Mayer (AO) data.
largest (>0.10) Wiberg bond orders for each atom

 ---------------------------------------------------------------------------
     #   Z sym  total        # sym  WBO       # sym  WBO       # sym  WBO
 ---------------------------------------------------------------------------
     1  16 S    5.055 --     6 O    1.451     3 O    1.409     2 O    1.401
                             4 O    0.778
     2   8 O    1.727 --     1 S    1.401     3 O    0.121     6 O    0.119
     3   8 O    1.725 --     1 S    1.409     2 O    0.121     6 O    0.120
     4   8 O    2.025 --     5 C    1.009     1 S    0.778
     5   6 C    3.957 --     4 O    1.009     9 H    0.980     7 H    0.978
                             8 H    0.972
     6   8 O    1.761 --     1 S    1.451     3 O    0.120     2 O    0.119
     7   1 H    1.000 --     5 C    0.978
     8   1 H    0.998 --     5 C    0.972
     9   1 H    1.000 --     5 C    0.980
 ---------------------------------------------------------------------------

Topologies differ in total number of bonds
Writing topology from bond orders to xtbtopo.mol

molecular dipole:
                 x           y           z       tot (Debye)
 q only:        1.105      -0.613       0.046
   full:        1.354      -0.704       0.057       3.882
molecular quadrupole (traceless):
                xx          xy          yy          xz          yz          zz
 q only:        2.752      -1.276      -1.513      -0.155       0.202      -1.239
  q+dip:        2.745      -0.680      -1.199       0.823      -0.489      -1.546
   full:        3.265      -1.158      -1.594       0.539      -0.201      -1.671

           -------------------------------------------------
          |                Geometry Summary                 |
           -------------------------------------------------

      molecular mass/u    :      111.0969652
   center of mass at/Å    :        0.0526860       0.0745166      -0.0777627
  moments of inertia/u·Å² :        0.9919086E+02   0.1756600E+03   0.1772163E+03
rotational constants/cm⁻¹ :        0.1699515E+00   0.9596737E-01   0.9512461E-01

 * 8 selected distances

     #   Z          #   Z                                           value/Å
     1  16 S        2   8 O                                       1.4543215
     1  16 S        3   8 O                                       1.4526002
     1  16 S        4   8 O                                       1.6781492 (max)
     4   8 O        5   6 C                                       1.3870413
     1  16 S        6   8 O                                       1.4460075
     5   6 C        7   1 H                                       1.0972928
     5   6 C        8   1 H                                       1.0932755 (min)
     5   6 C        9   1 H                                       1.0964537

 * 3 distinct bonds (by element types)

   Z      Z             #   av. dist./Å        max./Å        min./Å
   1 H    6 C           3     1.0956740     1.0972928     1.0932755
   6 C    8 O           1     1.3870413     1.3870413     1.3870413
   8 O   16 S           4     1.5077696     1.6781492     1.4460075


optimized geometry written to: xtbopt.xyz


           -------------------------------------------------
          | TOTAL ENERGY              -23.460181222383 Eh   |
          | GRADIENT NORM               0.000328228126 Eh/α |
          | HOMO-LUMO GAP               8.526672016354 eV   |
           -------------------------------------------------

------------------------------------------------------------------------
 * finished run on 2022/11/03 at 12:54:38.185     
------------------------------------------------------------------------
 total:
 * wall-time:     0 d,  0 h,  0 min,  2.102 sec
 *  cpu-time:     0 d,  0 h,  0 min, 16.714 sec
 * ratio c/w:     7.953 speedup
 SCF:
 * wall-time:     0 d,  0 h,  0 min,  0.310 sec
 *  cpu-time:     0 d,  0 h,  0 min,  2.466 sec
 * ratio c/w:     7.960 speedup
 ANC optimizer:
 * wall-time:     0 d,  0 h,  0 min,  1.736 sec
 *  cpu-time:     0 d,  0 h,  0 min, 13.806 sec
 * ratio c/w:     7.955 speedup

