9
 energy: -23.457630149890 gnorm: 0.000684029608 xtb: 6.5.1 (b24c23e)
S           -0.38297545488907       -0.12961323077414        0.19284026738571
O           -0.54211382989461       -0.88766139051368       -1.03775416942650
O           -1.05291250327886       -0.69093904421226        1.34583861614620
O            1.24660377562929       -0.26090494443129        0.58941052084091
C            1.98816702243769       -0.39104322988357       -0.57158629522387
O           -0.58883812923537        1.29673084023212        0.01263791167799
H            1.85511189385166        0.49413997112724       -1.20666960003191
H            3.04428889166387       -0.49025879895247       -0.29706753318341
H            1.65835334371536       -1.26524318259195       -1.14058171818509
