      -----------------------------------------------------------      
     |                   =====================                   |     
     |                           x T B                           |     
     |                   =====================                   |     
     |                         S. Grimme                         |     
     |          Mulliken Center for Theoretical Chemistry        |     
     |                    University of Bonn                     |     
      -----------------------------------------------------------      

   * xtb version 6.5.1 (b24c23e) compiled by 'conda@728c89f4b128' on 2022-07-12

   xtb is free software: you can redistribute it and/or modify it under
   the terms of the GNU Lesser General Public License as published by
   the Free Software Foundation, either version 3 of the License, or
   (at your option) any later version.
   
   xtb is distributed in the hope that it will be useful,
   but WITHOUT ANY WARRANTY; without even the implied warranty of
   MERCHANTABILITY or FITNESS FOR A PARTICULAR PURPOSE.  See the
   GNU Lesser General Public License for more details.
   
   Cite this work as:
   * C. Bannwarth, E. Caldeweyher, S. Ehlert, A. Hansen, P. Pracht,
     J. Seibert, S. Spicher, S. Grimme, WIREs Comput. Mol. Sci., 2020, 11,
     e01493. DOI: 10.1002/wcms.1493
   
   for GFN2-xTB:
   * C. Bannwarth, S. Ehlert and S. Grimme., J. Chem. Theory Comput., 2019,
     15, 1652-1671. DOI: 10.1021/acs.jctc.8b01176
   for GFN1-xTB:
   * S. Grimme, C. Bannwarth, P. Shushkov, J. Chem. Theory Comput., 2017,
     13, 1989-2009. DOI: 10.1021/acs.jctc.7b00118
   for GFN0-xTB:
   * P. Pracht, E. Caldeweyher, S. Ehlert, S. Grimme, ChemRxiv, 2019, preprint.
     DOI: 10.26434/chemrxiv.8326202.v1
   for GFN-FF:
   * S. Spicher and S. Grimme, Angew. Chem. Int. Ed., 2020, 59, 15665-15673.
     DOI: 10.1002/anie.202004239
   
   for ALPB and GBSA implicit solvation:
   * S. Ehlert, M. Stahn, S. Spicher, S. Grimme, J. Chem. Theory Comput.,
     2021, 17, 4250-4261. DOI: 10.1021/acs.jctc.1c00471
   
   for DFT-D4:
   * E. Caldeweyher, C. Bannwarth and S. Grimme, J. Chem. Phys., 2017,
     147, 034112. DOI: 10.1063/1.4993215
   * E. Caldeweyher, S. Ehlert, A. Hansen, H. Neugebauer, S. Spicher,
     C. Bannwarth and S. Grimme, J. Chem. Phys., 2019, 150, 154122.
     DOI: 10.1063/1.5090222
   * E. Caldeweyher, J.-M. Mewes, S. Ehlert and S. Grimme, Phys. Chem. Chem. Phys.
     2020, 22, 8499-8512. DOI: 10.1039/D0CP00502A
   
   for sTDA-xTB:
   * S. Grimme and C. Bannwarth, J. Chem. Phys., 2016, 145, 054103.
     DOI: 10.1063/1.4959605
   
   in the mass-spec context:
   * V. Asgeirsson, C. Bauer and S. Grimme, Chem. Sci., 2017, 8, 4879.
     DOI: 10.1039/c7sc00601b
   * J. Koopman and S. Grimme, ACS Omega 2019, 4, 12, 15120-15133.
     DOI: 10.1021/acsomega.9b02011
   
   for metadynamics refer to:
   * S. Grimme, J. Chem. Theory Comput., 2019, 155, 2847-2862
     DOI: 10.1021/acs.jctc.9b00143
   
   for SPH calculations refer to:
   * S. Spicher and S. Grimme, J. Chem. Theory Comput., 2021, 17, 1701-1714
     DOI: 10.1021/acs.jctc.0c01306
   
   with help from (in alphabetical order)
   P. Atkinson, C. Bannwarth, F. Bohle, G. Brandenburg, E. Caldeweyher
   M. Checinski, S. Dohm, S. Ehlert, S. Ehrlich, I. Gerasimov, C. Hölzer
   A. Katbashev, J. Koopman, C. Lavigne, S. Lehtola, F. März, M. Müller,
   F. Musil, H. Neugebauer, J. Pisarek, C. Plett, P. Pracht, F. Pultar,
   J. Seibert, P. Shushkov, S. Spicher, M. Stahn, M. Steiner, T. Strunk,
   J. Stückrath, T. Rose, and J. Unsleber
   
 * started run on 2022/11/03 at 12:56:04.750     

           -------------------------------------------------
          |                Calculation Setup                |
           -------------------------------------------------

          program call               : /home/chase/psi4conda/envs/xtbenv/bin/xtb --gfn 2 --chrg -1 --uhf 0 mso4-opt-1-4-090_preQMOPTprefit_xyzformat.xyz --opt --input xtb-opt-1-4-090_constr.txt
          coordinate file            : mso4-opt-1-4-090_preQMOPTprefit_xyzformat.xyz
          omp threads                :                     8

   ID    Z sym.   atoms
    1   16 S      1
    2    8 O      2-4, 6
    3    6 C      5
    4    1 H      7-9
constraining angle 2 1 4 5 to   89.9515525°, actual value:   89.9515525°
constraining angle 1 4 5 7 to   61.0095020°, actual value:   61.0095020°

           -------------------------------------------------
          |                 G F N 2 - x T B                 |
           -------------------------------------------------

        Reference                      10.1021/acs.jctc.8b01176
      * Hamiltonian:
        H0-scaling (s, p, d)           1.850000    2.230000    2.230000
        zeta-weighting                 0.500000
      * Dispersion:
        s8                             2.700000
        a1                             0.520000
        a2                             5.000000
        s9                             5.000000
      * Repulsion:
        kExp                           1.500000    1.000000
        rExp                           1.000000
      * Coulomb:
        alpha                          2.000000
        third order                    shell-resolved
        anisotropic                    true
        a3                             3.000000
        a5                             4.000000
        cn-shift                       1.200000
        cn-exp                         4.000000
        max-rad                        5.000000

q/qsh data taken from xtbrestart
CAMM data taken from xtbrestart

          ...................................................
          :                      SETUP                      :
          :.................................................:
          :  # basis functions                  33          :
          :  # atomic orbitals                  32          :
          :  # shells                           16          :
          :  # electrons                        38          :
          :  max. iterations                   250          :
          :  Hamiltonian                  GFN2-xTB          :
          :  restarted?                       true          :
          :  GBSA solvation                  false          :
          :  PC potential                    false          :
          :  electronic temp.          300.0000000     K    :
          :  accuracy                    1.0000000          :
          :  -> integral cutoff          0.2500000E+02      :
          :  -> integral neglect         0.1000000E-07      :
          :  -> SCF convergence          0.1000000E-05 Eh   :
          :  -> wf. convergence          0.1000000E-03 e    :
          :  Broyden damping             0.4000000          :
          ...................................................

 iter      E             dE          RMSdq      gap      omega  full diag
   1    -23.5594223 -0.235594E+02  0.106E+00    7.51       0.0  T
   2    -23.5597580 -0.335670E-03  0.649E-01    7.55       1.0  T
   3    -23.5597926 -0.346538E-04  0.154E-01    7.57       1.0  T
   4    -23.5597960 -0.334277E-05  0.395E-02    7.57       1.0  T
   5    -23.5597964 -0.440748E-06  0.108E-02    7.56       3.1  T
   6    -23.5597965 -0.570674E-07  0.379E-03    7.56       8.8  T
   7    -23.5597965 -0.132738E-07  0.116E-03    7.56      28.6  T
   8    -23.5597965 -0.189000E-08  0.558E-04    7.56      59.7  T
   9    -23.5597965 -0.431335E-09  0.148E-04    7.56     225.8  T

   *** convergence criteria satisfied after 9 iterations ***

         #    Occupation            Energy/Eh            Energy/eV
      -------------------------------------------------------------
         1        2.0000           -0.5707694             -15.5314
       ...           ...                  ...                  ...
        13        2.0000           -0.2755451              -7.4980
        14        2.0000           -0.2547901              -6.9332
        15        2.0000           -0.2526360              -6.8746
        16        2.0000           -0.2466710              -6.7123
        17        2.0000           -0.2409869              -6.5576
        18        2.0000           -0.2385520              -6.4913
        19        2.0000           -0.2279324              -6.2024 (HOMO)
        20                          0.0500713               1.3625 (LUMO)
        21                          0.1096244               2.9830
        22                          0.1773542               4.8261
        23                          0.2192698               5.9666
        24                          0.2693437               7.3292
       ...                                ...                  ...
        32                          1.2812086              34.8635
      -------------------------------------------------------------
                  HL-Gap            0.2780037 Eh            7.5649 eV
             Fermi-level           -0.0889305 Eh           -2.4199 eV

 SCC (total)                   0 d,  0 h,  0 min,  0.285 sec
 SCC setup                      ...        0 min,  0.008 sec (  2.945%)
 Dispersion                     ...        0 min,  0.015 sec (  5.295%)
 classical contributions        ...        0 min,  0.004 sec (  1.361%)
 integral evaluation            ...        0 min,  0.022 sec (  7.606%)
 iterations                     ...        0 min,  0.189 sec ( 66.455%)
 molecular gradient             ...        0 min,  0.046 sec ( 16.286%)
 printout                       ...        0 min,  0.000 sec (  0.045%)

         :::::::::::::::::::::::::::::::::::::::::::::::::::::
         ::                     SUMMARY                     ::
         :::::::::::::::::::::::::::::::::::::::::::::::::::::
         :: total energy             -23.452201868277 Eh    ::
         :: gradient norm              0.057641908628 Eh/a0 ::
         :: HOMO-LUMO gap              7.564864777606 eV    ::
         ::.................................................::
         :: SCC energy               -23.559796468164 Eh    ::
         :: -> isotropic ES            0.216318294159 Eh    ::
         :: -> anisotropic ES         -0.015639178579 Eh    ::
         :: -> anisotropic XC         -0.004079685818 Eh    ::
         :: -> dispersion             -0.006907798220 Eh    ::
         :: repulsion energy           0.107592180410 Eh    ::
         :: add. restraining           0.000000000000 Eh    ::
         :: total charge              -1.000000000000 e     ::
         :::::::::::::::::::::::::::::::::::::::::::::::::::::

      ----------------------------------------------------------- 
     |                   =====================                   |
     |                        A N C O P T                        |
     |                   =====================                   |
     |               Approximate Normal Coordinate               |
     |                Rational Function Optimizer                |
      ----------------------------------------------------------- 

          ...................................................
          :                      SETUP                      :
          :.................................................:
          :   optimization level            normal          :
          :   max. optcycles                   200          :
          :   ANC micro-cycles                  20          :
          :   degrees of freedom                21          :
          :.................................................:
          :   RF solver                   davidson          :
          :   write xtbopt.log                true          :
          :   linear?                        false          :
          :   energy convergence         0.5000000E-05 Eh   :
          :   grad. convergence          0.1000000E-02 Eh/α :
          :   maximium RF displ.         1.0000000          :
          :   Hlow (freq-cutoff)         0.1000000E-01      :
          :   Hmax (freq-cutoff)         5.0000000          :
          :   S6 in model hess.         20.0000000          :
          ...................................................

generating ANC from model Hessian ...
Using Lindh-Hessian (1995)
 Shifting diagonal of input Hessian by    0.0000000000000000     
 Lowest  eigenvalues of input Hessian
    0.000000    0.000000    0.000000    0.000000    0.000000    0.000000
    0.019279    0.038781    0.059609    0.077083    0.091593    0.106734
    0.136308    0.212587    0.298926    0.355247    0.480672    0.518615
 Highest eigenvalues
    1.361796    1.777374    1.818794    2.965231    4.244785    9.295240


........................................................................
.............................. CYCLE    1 ..............................
........................................................................
   1    -23.5597965 -0.235598E+02  0.369E-05    7.56       0.0  T
   2    -23.5597965 -0.760281E-12  0.257E-05    7.56    1296.3  T
   3    -23.5597965 -0.792255E-12  0.803E-06    7.56    4152.8  T
     SCC iter.                  ...        0 min,  0.070 sec
     gradient                   ...        0 min,  0.051 sec
 * total energy  :   -23.4522019 Eh     change       -0.2738432E-10 Eh
   gradient norm :     0.0576424 Eh/α   predicted     0.0000000E+00 (-100.00%)
   displ. norm   :     0.2102428 α      lambda       -0.5135521E-02
   maximum displ.:     0.1621751 α      in ANC's #1, #4, #2, ...

........................................................................
.............................. CYCLE    2 ..............................
........................................................................
   1    -23.5687919 -0.235688E+02  0.227E-01    8.00       0.0  T
   2    -23.5688406 -0.486608E-04  0.148E-01    7.98       1.0  T
   3    -23.5688426 -0.199468E-05  0.729E-02    7.98       1.0  T
   4    -23.5688431 -0.468082E-06  0.131E-02    7.98       2.6  T
   5    -23.5688431 -0.494816E-07  0.313E-03    7.98      10.7  T
   6    -23.5688431 -0.564468E-08  0.168E-03    7.98      19.8  T
   7    -23.5688431 -0.139833E-08  0.224E-04    7.98     148.5  T
   8    -23.5688431 -0.206200E-10  0.862E-05    7.98     386.5  T
     SCC iter.                  ...        0 min,  0.151 sec
     gradient                   ...        0 min,  0.049 sec
 * total energy  :   -23.4560681 Eh     change       -0.3866211E-02 Eh
   gradient norm :     0.0324876 Eh/α   predicted    -0.2681265E-02 ( -30.65%)
   displ. norm   :     0.2274517 α      lambda       -0.2981869E-02
   maximum displ.:     0.2021865 α      in ANC's #1, #15, #9, ...

........................................................................
.............................. CYCLE    3 ..............................
........................................................................
   1    -23.5773240 -0.235773E+02  0.222E-01    8.45       0.0  T
   2    -23.5773658 -0.417229E-04  0.145E-01    8.43       1.0  T
   3    -23.5773681 -0.228644E-05  0.675E-02    8.43       1.0  T
   4    -23.5773685 -0.431722E-06  0.122E-02    8.43       2.7  T
   5    -23.5773685 -0.565431E-07  0.267E-03    8.43      12.5  T
   6    -23.5773685 -0.469499E-08  0.159E-03    8.43      20.9  T
   7    -23.5773685 -0.185769E-08  0.247E-04    8.43     135.1  T
   8    -23.5773685 -0.586304E-10  0.150E-04    8.43     221.7  T
     SCC iter.                  ...        0 min,  0.170 sec
     gradient                   ...        0 min,  0.062 sec
 * total energy  :   -23.4575748 Eh     change       -0.1506731E-02 Eh
   gradient norm :     0.0129143 Eh/α   predicted    -0.1568067E-02 (   4.07%)
   displ. norm   :     0.0249516 α      lambda       -0.9493020E-04
   maximum displ.:     0.0166092 α      in ANC's #4, #2, #3, ...

........................................................................
.............................. CYCLE    4 ..............................
........................................................................
   1    -23.5778299 -0.235778E+02  0.424E-02    8.45       0.0  T
   2    -23.5778302 -0.349728E-06  0.240E-02    8.45       1.4  T
   3    -23.5778303 -0.409324E-07  0.523E-03    8.45       6.4  T
   4    -23.5778303 -0.146287E-08  0.190E-03    8.45      17.6  T
   5    -23.5778303 -0.540172E-09  0.243E-04    8.45     137.2  T
   6    -23.5778303 -0.266631E-10  0.139E-04    8.45     239.1  T
     SCC iter.                  ...        0 min,  0.109 sec
     gradient                   ...        0 min,  0.051 sec
 * total energy  :   -23.4576181 Eh     change       -0.4326117E-04 Eh
   gradient norm :     0.0091562 Eh/α   predicted    -0.4749365E-04 (   9.78%)
   displ. norm   :     0.0115190 α      lambda       -0.1854624E-04
   maximum displ.:     0.0073620 α      in ANC's #1, #4, #2, ...

........................................................................
.............................. CYCLE    5 ..............................
........................................................................
   1    -23.5779216 -0.235779E+02  0.178E-02    8.46       0.0  T
   2    -23.5779217 -0.126740E-06  0.103E-02    8.46       3.2  T
   3    -23.5779217 -0.727276E-08  0.316E-03    8.46      10.5  T
   4    -23.5779217 -0.526367E-09  0.870E-04    8.46      38.3  T
   5    -23.5779217 -0.117367E-09  0.140E-04    8.46     237.4  T
     SCC iter.                  ...        0 min,  0.089 sec
     gradient                   ...        0 min,  0.106 sec
 * total energy  :   -23.4576262 Eh     change       -0.8174952E-05 Eh
   gradient norm :     0.0017167 Eh/α   predicted    -0.9272902E-05 (  13.43%)
   displ. norm   :     0.0047319 α      lambda       -0.1736980E-05
   maximum displ.:     0.0033740 α      in ANC's #4, #1, #3, ...

........................................................................
.............................. CYCLE    6 ..............................
........................................................................
   1    -23.5780351 -0.235780E+02  0.641E-03    8.47       0.0  T
   2    -23.5780351 -0.185427E-07  0.389E-03    8.47       8.6  T
   3    -23.5780351 -0.121452E-08  0.109E-03    8.47      30.5  T
   4    -23.5780351 -0.138876E-09  0.370E-04    8.47      90.2  T
   5    -23.5780351 -0.304752E-10  0.818E-05    8.47     407.3  T
     SCC iter.                  ...        0 min,  0.108 sec
     gradient                   ...        0 min,  0.057 sec
 * total energy  :   -23.4576274 Eh     change       -0.1174532E-05 Eh
   gradient norm :     0.0006914 Eh/α   predicted    -0.8672054E-06 ( -26.17%)
   displ. norm   :     0.0015876 α      lambda       -0.2704229E-06
   maximum displ.:     0.0007820 α      in ANC's #7, #2, #5, ...

   *** GEOMETRY OPTIMIZATION CONVERGED AFTER 6 ITERATIONS ***

------------------------------------------------------------------------
 total energy gain   :        -0.0054256 Eh       -3.4046 kcal/mol
 total RMSD          :         0.1447829 a0        0.0766 Å
 total power (kW/mol):        -2.3741310 (step)  -10.6738 (real)
------------------------------------------------------------------------

 ANCopt (total)                0 d,  0 h,  0 min,  1.335 sec
 optimizer setup                ...        0 min,  0.000 sec (  0.004%)
 model hessian                  ...        0 min,  0.002 sec (  0.144%)
 ANC generation                 ...        0 min,  0.000 sec (  0.025%)
 coordinate transformation      ...        0 min,  0.000 sec (  0.002%)
 single point calculation       ...        0 min,  1.300 sec ( 97.446%)
 optimization log               ...        0 min,  0.000 sec (  0.036%)
 hessian update                 ...        0 min,  0.030 sec (  2.285%)
 rational function              ...        0 min,  0.001 sec (  0.038%)

================
 final structure:
================
9
 xtb: 6.5.1 (b24c23e)
S           -0.39954071252931       -0.26688132473533        0.15301971339626
O           -0.96423850856066       -1.32940796612586       -0.65890920980340
O           -0.97263539511050       -0.17562933046789        1.47989279439187
O            1.17771249944464       -0.76827798278525        0.45597559007384
C            2.00073204101768       -0.29084540623027       -0.54865202817443
O           -0.27483535275929        1.00784544548655       -0.53369397701053
H            1.98516718098000        0.80311219834468       -0.57199043496195
H            3.01868545413797       -0.65193353804516       -0.36342427068276
H            1.65463679337949       -0.65277308544146       -1.52515218722892

 Bond Distances (Angstroems)
 ---------------------------
S1-O2=1.4516         S1-O3=1.4482         S1-O4=1.6825         S1-O6=1.4533         O2-S1=1.4516         O3-S1=1.4482         
O4-S1=1.6825         O4-C5=1.3837         C5-O4=1.3837         C5-H7=1.0943         C5-H8=1.0959         C5-H9=1.0974         
O6-S1=1.4533         H7-C5=1.0943         H8-C5=1.0959         H9-C5=1.0974         
 C  H  Rav=1.0959 sigma=0.0013  Rmin=1.0943  Rmax=1.0974     3
 O  C  Rav=1.3837 sigma=0.0000  Rmin=1.3837  Rmax=1.3837     1
 S  O  Rav=1.5089 sigma=0.1003  Rmin=1.4482  Rmax=1.6825     4

 selected bond angles (degree)
 --------------------
O3-S1-O2=113.87                O4-S1-O2=104.32                O4-S1-O3=102.99                O6-S1-O2=114.28                
O6-S1-O3=114.31                O6-S1-O4=105.43                C5-O4-S1=108.91                H7-C5-O4=110.61                
H8-C5-O4=108.43                H8-C5-H7=110.26                H9-C5-O4=110.16                H9-C5-H7=107.83                
H9-C5-H8=109.55                

 selected dihedral angles (degree)
 ---------------------------------
C5-O4-S1-O2= 89.86            C5-O4-S1-O3=209.03            C5-O4-S1-O6=329.15            H7-C5-O4-S1= 61.01            
H8-C5-O4-S1=182.02            H9-C5-O4-S1=301.90            
           -------------------------------------------------
          |                Final Singlepoint                |
           -------------------------------------------------

          ...................................................
          :                      SETUP                      :
          :.................................................:
          :  # basis functions                  33          :
          :  # atomic orbitals                  32          :
          :  # shells                           16          :
          :  # electrons                        38          :
          :  max. iterations                   250          :
          :  Hamiltonian                  GFN2-xTB          :
          :  restarted?                      false          :
          :  GBSA solvation                  false          :
          :  PC potential                    false          :
          :  electronic temp.          300.0000000     K    :
          :  accuracy                    1.0000000          :
          :  -> integral cutoff          0.2500000E+02      :
          :  -> integral neglect         0.1000000E-07      :
          :  -> SCF convergence          0.1000000E-05 Eh   :
          :  -> wf. convergence          0.1000000E-03 e    :
          :  Broyden damping             0.4000000          :
          ...................................................

 iter      E             dE          RMSdq      gap      omega  full diag
   1    -23.5780351 -0.235780E+02  0.427E-05    8.47       0.0  T
   2    -23.5780351 -0.390799E-12  0.286E-05    8.47    1163.6  T
   3    -23.5780351 -0.241585E-12  0.410E-06    8.47    8127.7  T

   *** convergence criteria satisfied after 3 iterations ***

         #    Occupation            Energy/Eh            Energy/eV
      -------------------------------------------------------------
         1        2.0000           -0.5690402             -15.4844
       ...           ...                  ...                  ...
        13        2.0000           -0.2752792              -7.4907
        14        2.0000           -0.2574082              -7.0044
        15        2.0000           -0.2538496              -6.9076
        16        2.0000           -0.2477383              -6.7413
        17        2.0000           -0.2387989              -6.4980
        18        2.0000           -0.2382722              -6.4837
        19        2.0000           -0.2270010              -6.1770 (HOMO)
        20                          0.0842991               2.2939 (LUMO)
        21                          0.1448204               3.9408
        22                          0.2030883               5.5263
        23                          0.2293342               6.2405
        24                          0.2713363               7.3834
       ...                                ...                  ...
        32                          1.4112277              38.4015
      -------------------------------------------------------------
                  HL-Gap            0.3113001 Eh            8.4709 eV
             Fermi-level           -0.0713509 Eh           -1.9416 eV

 SCC (total)                   0 d,  0 h,  0 min,  0.178 sec
 SCC setup                      ...        0 min,  0.007 sec (  3.905%)
 Dispersion                     ...        0 min,  0.013 sec (  7.185%)
 classical contributions        ...        0 min,  0.007 sec (  3.961%)
 integral evaluation            ...        0 min,  0.018 sec ( 10.324%)
 iterations                     ...        0 min,  0.066 sec ( 37.099%)
 molecular gradient             ...        0 min,  0.067 sec ( 37.426%)
 printout                       ...        0 min,  0.000 sec (  0.090%)

         :::::::::::::::::::::::::::::::::::::::::::::::::::::
         ::                     SUMMARY                     ::
         :::::::::::::::::::::::::::::::::::::::::::::::::::::
         :: total energy             -23.457627420711 Eh    ::
         :: gradient norm              0.000691534164 Eh/a0 ::
         :: HOMO-LUMO gap              8.470907433892 eV    ::
         ::.................................................::
         :: SCC energy               -23.578035138458 Eh    ::
         :: -> isotropic ES            0.214184353041 Eh    ::
         :: -> anisotropic ES         -0.021756428212 Eh    ::
         :: -> anisotropic XC         -0.005704618811 Eh    ::
         :: -> dispersion             -0.007048147928 Eh    ::
         :: repulsion energy           0.120399029803 Eh    ::
         :: add. restraining           0.000006708051 Eh    ::
         :: total charge              -1.000000000000 e     ::
         :::::::::::::::::::::::::::::::::::::::::::::::::::::

           -------------------------------------------------
          |                Property Printout                |
           -------------------------------------------------

    * Orbital Energies and Occupations

         #    Occupation            Energy/Eh            Energy/eV
      -------------------------------------------------------------
         1        2.0000           -0.5690402             -15.4844
       ...           ...                  ...                  ...
         7        2.0000           -0.3913069             -10.6480
         8        2.0000           -0.3884906             -10.5714
         9        2.0000           -0.3831966             -10.4273
        10        2.0000           -0.3224179              -8.7734
        11        2.0000           -0.3175571              -8.6412
        12        2.0000           -0.3145796              -8.5601
        13        2.0000           -0.2752792              -7.4907
        14        2.0000           -0.2574082              -7.0044
        15        2.0000           -0.2538496              -6.9076
        16        2.0000           -0.2477383              -6.7413
        17        2.0000           -0.2387989              -6.4980
        18        2.0000           -0.2382722              -6.4837
        19        2.0000           -0.2270010              -6.1770 (HOMO)
        20                          0.0842991               2.2939 (LUMO)
        21                          0.1448204               3.9408
        22                          0.2030883               5.5263
        23                          0.2293342               6.2405
        24                          0.2713363               7.3834
        25                          0.3093135               8.4168
        26                          0.3331261               9.0648
        27                          0.3476754               9.4607
        28                          0.4361409              11.8680
        29                          0.4477646              12.1843
        30                          0.9385561              25.5394
       ...                                ...                  ...
        32                          1.4112277              38.4015
      -------------------------------------------------------------
                  HL-Gap            0.3113001 Eh            8.4709 eV
             Fermi-level           -0.0713509 Eh           -1.9416 eV

     #   Z          covCN         q      C6AA      α(0)
     1  16 S        3.690     1.426    95.272    16.428
     2   8 O        0.860    -0.698    28.653     7.177
     3   8 O        0.860    -0.681    28.201     7.120
     4   8 O        1.706    -0.482    22.491     6.403
     5   6 C        3.880     0.069    19.374     6.258
     6   8 O        0.860    -0.706    28.870     7.204
     7   1 H        0.924     0.035     2.519     2.482
     8   1 H        0.924     0.018     2.765     2.601
     9   1 H        0.924     0.019     2.746     2.592

 Mol. C6AA /au·bohr⁶  :       1570.628938
 Mol. C8AA /au·bohr⁸  :      40483.509733
 Mol. α(0) /au        :         58.264032


Wiberg/Mayer (AO) data.
largest (>0.10) Wiberg bond orders for each atom

 ---------------------------------------------------------------------------
     #   Z sym  total        # sym  WBO       # sym  WBO       # sym  WBO
 ---------------------------------------------------------------------------
     1  16 S    5.065 --     3 O    1.445     2 O    1.420     6 O    1.411
                             4 O    0.773
     2   8 O    1.737 --     1 S    1.420     3 O    0.122     6 O    0.120
     3   8 O    1.757 --     1 S    1.445     2 O    0.122     6 O    0.118
     4   8 O    2.024 --     5 C    1.011     1 S    0.773
     5   6 C    3.959 --     4 O    1.011     8 H    0.979     9 H    0.979
                             7 H    0.975
     6   8 O    1.731 --     1 S    1.411     2 O    0.120     3 O    0.118
     7   1 H    0.999 --     5 C    0.975
     8   1 H    1.000 --     5 C    0.979
     9   1 H    1.000 --     5 C    0.979
 ---------------------------------------------------------------------------

Topologies differ in total number of bonds
Writing topology from bond orders to xtbtopo.mol

molecular dipole:
                 x           y           z       tot (Debye)
 q only:        1.296       0.585      -0.504
   full:        1.564       0.565      -0.574       4.471
molecular quadrupole (traceless):
                xx          xy          yy          xz          yz          zz
 q only:        3.179      -1.437      -1.929      -0.516       0.399      -1.250
  q+dip:        3.056      -2.151      -1.366       0.513       0.931      -1.690
   full:        3.674      -2.107      -1.888       0.032       0.659      -1.786

           -------------------------------------------------
          |                Geometry Summary                 |
           -------------------------------------------------

      molecular mass/u    :      111.0969652
   center of mass at/Å    :        0.0124855      -0.2952655       0.0695656
  moments of inertia/u·Å² :        0.9945370E+02   0.1781192E+03   0.1796273E+03
rotational constants/cm⁻¹ :        0.1695023E+00   0.9464244E-01   0.9384784E-01

 * 7 selected distances

     #   Z          #   Z                                           value/Å
     1  16 S        2   8 O                                       1.4515769
     1  16 S        3   8 O                                       1.4482255
     4   8 O        5   6 C                                       1.3836835
     1  16 S        6   8 O                                       1.4532914 (max)
     5   6 C        7   1 H                                       1.0943173 (min)
     5   6 C        8   1 H                                       1.0958665
     5   6 C        9   1 H                                       1.0974180

 * 3 distinct bonds (by element types)

   Z      Z             #   av. dist./Å        max./Å        min./Å
   1 H    6 C           3     1.0958673     1.0974180     1.0943173
   6 C    8 O           1     1.3836835     1.3836835     1.3836835
   8 O   16 S           3     1.4510312     1.4532914     1.4482255


optimized geometry written to: xtbopt.xyz


           -------------------------------------------------
          | TOTAL ENERGY              -23.457627420711 Eh   |
          | GRADIENT NORM               0.000691534164 Eh/α |
          | HOMO-LUMO GAP               8.470907433892 eV   |
           -------------------------------------------------

------------------------------------------------------------------------
 * finished run on 2022/11/03 at 12:56:06.601     
------------------------------------------------------------------------
 total:
 * wall-time:     0 d,  0 h,  0 min,  1.851 sec
 *  cpu-time:     0 d,  0 h,  0 min, 14.746 sec
 * ratio c/w:     7.966 speedup
 SCF:
 * wall-time:     0 d,  0 h,  0 min,  0.285 sec
 *  cpu-time:     0 d,  0 h,  0 min,  2.270 sec
 * ratio c/w:     7.960 speedup
 ANC optimizer:
 * wall-time:     0 d,  0 h,  0 min,  1.514 sec
 *  cpu-time:     0 d,  0 h,  0 min, 12.061 sec
 * ratio c/w:     7.968 speedup

