2022-11-03:13:01:07,678 INFO     [psi4.driver.task_planner:266] PLANNING Atomic:  keywords={'FREEZE_CORE': 'TRUE', 'function_kwargs': {}}
2022-11-03:13:01:07,683 INFO     [psi4.driver.driver:499] Compute energy(): method=wb97x-d, basis=6-311+g*, molecule=default, nre=362.47848189454834
2022-11-03:13:01:22,142 INFO     [psi4.driver.driver:502] Return energy(): -739.0044634236348
,
    A. Alenaizan, A. M. James, S. Lehtola, J. P. Misiewicz, M. Scheurer,
    R. A. Shaw, J. B. Schriber, Y. Xie, Z. L. Glick, D. A. Sirianni,
    J. S. O'Brien, J. M. Waldrop, A. Kumar, E. G. Hohenstein,
    B. P. Pritchard, B. R. Brooks, H. F. Schaefer III, A. Yu. Sokolov,
    K. Patkowski, A. E. DePrince III, U. Bozkaya, R. A. King,
    F. A. Evangelista, J. M. Turney, T. D. Crawford, C. D. Sherrill,
    J. Chem. Phys. 152(18) 184108 (2020). https://doi.org/10.1063/5.0006002

                            Additional Code Authors
    E. T. Seidl, C. L. Janssen, E. F. Valeev, M. L. Leininger,
    J. F. Gonthier, R. M. Richard, H. R. McAlexander, M. Saitow, X. Wang,
    P. Verma, M. H. Lechner, and A. Jiang

             Previous Authors, Complete List of Code Contributors,
                       and Citations for Specific Modules
    https://github.com/psi4/psi4/blob/master/codemeta.json
    https://github.com/psi4/psi4/graphs/contributors
    http://psicode.org/psi4manual/master/introduction.html#citing-psifour

    -----------------------------------------------------------------------


    Psi4 started on: Thursday, 03 November 2022 01:01PM

    Process ID: 9347
    Host:       DESKTOP-26BCFJT
    PSIDATADIR: /home/chase/psi4conda/share/psi4
    Memory:     500.0 MiB
    Threads:    1
    
  ==> Input File <==

--------------------------------------------------------------------------
molecule { 
-1 1
 S   -0.411963    0.090952   -0.162971
 O   -1.248645    0.815842   -1.095869
 O   -0.473067   -1.353234   -0.322239
 O    1.146362    0.519311   -0.632105
 C    2.007468   -0.523971   -0.341185
 O   -0.507861    0.530164    1.216607
 H    1.718618   -1.425537   -0.889776
 H    3.024377   -0.221515   -0.615986
 H    1.970396   -0.756806    0.730590
}
memory 1GB
set_num_threads(2)
psi4_io.set_default_path("/home/chase/temp/Psi4-mso4")
set freeze_core True
E, wfn = energy('wb97x-d/6-311+G*',return_wfn=True)
oeprop(wfn,"WIBERG_LOWDIN_INDICES")
clean()
--------------------------------------------------------------------------

  Memory set to 953.674 MiB by Python driver.
  Threads set to 2 by Python driver.

Scratch directory: /home/chase/temp/Psi4-mso4/

*** tstart() called on DESKTOP-26BCFJT
*** at Thu Nov  3 13:01:07 2022

   => Loading Basis Set <=

    Name: 6-311+G*
    Role: ORBITAL
    Keyword: BASIS
    atoms 1      entry S          line   430 file /home/chase/psi4conda/share/psi4/basis/6-311pgs.gbs 
    atoms 2-4, 6 entry O          line   172 file /home/chase/psi4conda/share/psi4/basis/6-311pgs.gbs 
    atoms 5      entry C          line   130 file /home/chase/psi4conda/share/psi4/basis/6-311pgs.gbs 
    atoms 7-9    entry H          line    47 file /home/chase/psi4conda/share/psi4/basis/6-311pgs.gbs 

   => WB97X-D: Empirical Dispersion <=

    Chai and Head-Gordon Dispersion Correction
    Chai, J.-D.; Head-Gordon, M. (2010), J. Chem. Phys., 132: 6615-6620

        s6 =       1.000000


         ---------------------------------------------------------
                                   SCF
               by Justin Turney, Rob Parrish, Andy Simmonett
                          and Daniel G. A. Smith
                              RKS Reference
                        2 Threads,    953 MiB Core
         ---------------------------------------------------------

  ==> Geometry <==

    Molecular point group: c1
    Full point group: C1

    Geometry (in Angstrom), charge = -1, multiplicity = 1:

       Center              X                  Y                   Z               Mass       
    ------------   -----------------  -----------------  -----------------  -----------------
         S           -0.415192204979     0.069430729373     0.048062041178    31.972071174400
         O           -1.251874204979     0.794320729373    -0.884835958822    15.994914619570
         O           -0.476296204979    -1.374755270627    -0.111205958822    15.994914619570
         O            1.143132795021     0.497789729373    -0.421071958822    15.994914619570
         C            2.004238795021    -0.545492270627    -0.130151958822    12.000000000000
         O           -0.511090204979     0.508642729373     1.427640041178    15.994914619570
         H            1.715388795021    -1.447058270627    -0.678742958822     1.007825032230
         H            3.021147795021    -0.243036270627    -0.404952958822     1.007825032230
         H            1.967166795021    -0.778327270627     0.941623041178     1.007825032230

  Running in c1 symmetry.

  Rotational constants: A =      0.16944  B =      0.09463  C =      0.09404 [cm^-1]
  Rotational constants: A =   5079.77433  B =   2837.02773  C =   2819.32740 [MHz]
  Nuclear repulsion =  362.478481894548224

  Charge       = -1
  Multiplicity = 1
  Electrons    = 58
  Nalpha       = 29
  Nbeta        = 29

  ==> Algorithm <==

  SCF Algorithm Type is DF.
  DIIS enabled.
  MOM disabled.
  Fractional occupation disabled.
  Guess Type is SAD.
  Energy threshold   = 1.00e-06
  Density threshold  = 1.00e-06
  Integral threshold = 1.00e-12

  ==> Primary Basis <==

  Basis Set: 6-311+G*
    Blend: 6-311+G*
    Number of shells: 73
    Number of basis functions: 149
    Number of Cartesian functions: 155
    Spherical Harmonics?: true
    Max angular momentum: 2

  ==> DFT Potential <==

   => LibXC <=

    Version 5.1.5
    S. Lehtola, C. Steigemann, M. J. Oliveira, and M. A. Marques, SoftwareX 7, 1 (2018) (10.1016/j.softx.2017.11.002)

   => Composite Functional: WB97X-D <= 

    wB97X-D Hyb-GGA Exchange-Correlation Functional

    J.-D. Chai and M. Head-Gordon, Phys. Chem. Chem. Phys. 10, 6615 (2008) (10.1039/B810189B)

    Deriv               =              1
    GGA                 =           TRUE
    Meta                =          FALSE

    Exchange Hybrid     =           TRUE
    MP2 Hybrid          =          FALSE

   => Exchange-Correlation Functionals <=

    1.0000   wB97X-D range-separated functional

   => Exact (HF) Exchange <=

    0.7780            HF,LR [omega = 0.2000]
    0.2220               HF 

   => LibXC Density Thresholds  <==

    XC_HYB_GGA_XC_WB97X_D:  1.00E-14 

   => Molecular Quadrature <=

    Radial Scheme          =       TREUTLER
    Pruning Scheme         =           NONE
    Nuclear Scheme         =       TREUTLER

    Blocking Scheme        =         OCTREE
    BS radius alpha        =              1
    Pruning alpha          =              1
    Radial Points          =             75
    Spherical Points       =            302
    Total Points           =         194331
    Total Blocks           =           1502
    Max Points             =            256
    Max Functions          =            148
    Weights Tolerance      =       1.00E-15

   => Loading Basis Set <=

    Name: (6-311+G* AUX)
    Role: JKFIT
    Keyword: DF_BASIS_SCF
    atoms 1      entry S          line   768 file /home/chase/psi4conda/share/psi4/basis/heavy-aug-cc-pvtz-jkfit.gbs 
    atoms 2-4, 6 entry O          line   324 file /home/chase/psi4conda/share/psi4/basis/heavy-aug-cc-pvtz-jkfit.gbs 
    atoms 5      entry C          line   200 file /home/chase/psi4conda/share/psi4/basis/heavy-aug-cc-pvtz-jkfit.gbs 
    atoms 7-9    entry H          line   116 file /home/chase/psi4conda/share/psi4/basis/heavy-aug-cc-pvtz-jkfit.gbs 

  ==> Integral Setup <==

  DFHelper Memory: AOs need 0.374 GiB; user supplied 0.374 GiB. Using in-core AOs.

  ==> MemDFJK: Density-Fitted J/K Matrices <==

    J tasked:                   Yes
    K tasked:                   Yes
    wK tasked:                  Yes
    Omega:                2.000E-01
    OpenMP threads:               2
    Memory [MiB]:               383
    Algorithm:                 Core
    Schwarz Cutoff:           1E-12
    Mask sparsity (%):       2.6846
    Fitting Condition:        1E-10

   => Auxiliary Basis Set <=

  Basis Set: (6-311+G* AUX)
    Blend: HEAVY-AUG-CC-PVTZ-JKFIT
    Number of shells: 222
    Number of basis functions: 756
    Number of Cartesian functions: 940
    Spherical Harmonics?: true
    Max angular momentum: 4

  Cached 50.0% of DFT collocation blocks in 0.307 [GiB].

  Minimum eigenvalue in the overlap matrix is 4.5484500611E-04.
  Reciprocal condition number of the overlap matrix is 4.6902600390E-05.
    Using symmetric orthogonalization.

  ==> Pre-Iterations <==

  SCF Guess: Superposition of Atomic Densities via on-the-fly atomic UHF (no occupation information).

   -------------------------
    Irrep   Nso     Nmo    
   -------------------------
     A        149     149 
   -------------------------
    Total     149     149
   -------------------------

  ==> Iterations <==

                           Total Energy        Delta E     RMS |[F,P]|

   @DF-RKS iter SAD:  -738.93547242692910   -7.38935e+02   0.00000e+00 
   @DF-RKS iter   1:  -738.52318052733506    4.12292e-01   7.84491e-03 ADIIS/DIIS
   @DF-RKS iter   2:  -738.44814852413720    7.50320e-02   8.84418e-03 ADIIS/DIIS
   @DF-RKS iter   3:  -738.99985919276958   -5.51711e-01   7.97751e-04 ADIIS/DIIS
   @DF-RKS iter   4:  -739.00381087116659   -3.95168e-03   2.78716e-04 ADIIS/DIIS
   @DF-RKS iter   5:  -739.00436371488740   -5.52844e-04   1.13762e-04 ADIIS/DIIS
   @DF-RKS iter   6:  -739.00445765043514   -9.39355e-05   2.42746e-05 DIIS
   @DF-RKS iter   7:  -739.00446315451291   -5.50408e-06   4.52373e-06 DIIS
   @DF-RKS iter   8:  -739.00446339701909   -2.42506e-07   1.57322e-06 DIIS
   @DF-RKS iter   9:  -739.00446342363477   -2.66157e-08   5.08137e-07 DIIS
  Energy and wave function converged.


  ==> Post-Iterations <==

   Electrons on quadrature grid:
      Ntotal   =   57.9999758678 ; deviation = -2.413e-05 

    Orbital Energies [Eh]
    ---------------------

    Doubly Occupied:                                                      

       1A    -89.061596     2A    -19.110807     3A    -19.045320  
       4A    -19.043290     5A    -19.041397     6A    -10.181589  
       7A     -8.073688     8A     -6.023014     9A     -6.020782  
      10A     -6.020523    11A     -1.085238    12A     -0.973919  
      13A     -0.918563    14A     -0.917176    15A     -0.648434  
      16A     -0.517473    17A     -0.441511    18A     -0.412084  
      19A     -0.407476    20A     -0.370007    21A     -0.357726  
      22A     -0.313635    23A     -0.259335    24A     -0.253568  
      25A     -0.241055    26A     -0.238913    27A     -0.207897  
      28A     -0.189573    29A     -0.166070  

    Virtual:                                                              

      30A      0.179306    31A      0.216726    32A      0.222134  
      33A      0.227670    34A      0.256144    35A      0.257147  
      36A      0.260075    37A      0.299273    38A      0.335469  
      39A      0.351530    40A      0.361109    41A      0.379995  
      42A      0.383447    43A      0.405793    44A      0.412491  
      45A      0.418358    46A      0.441298    47A      0.447248  
      48A      0.464075    49A      0.476441    50A      0.487206  
      51A      0.494484    52A      0.495108    53A      0.503179  
      54A      0.516713    55A      0.522641    56A      0.527637  
      57A      0.538440    58A      0.547201    59A      0.565530  
      60A      0.602784    61A      0.610709    62A      0.635554  
      63A      0.651950    64A      0.667968    65A      0.706704  
      66A      0.725346    67A      0.775464    68A      0.847012  
      69A      0.874358    70A      0.899503    71A      0.954454  
      72A      1.001931    73A      1.081304    74A      1.179832  
      75A      1.234877    76A      1.255433    77A      1.279244  
      78A      1.303618    79A      1.323696    80A      1.368513  
      81A      1.381890    82A      1.393736    83A      1.399232  
      84A      1.407249    85A      1.416055    86A      1.441349  
      87A      1.455437    88A      1.480788    89A      1.518042  
      90A      1.605711    91A      1.642034    92A      1.795257  
      93A      1.802866    94A      1.828438    95A      1.841173  
      96A      1.921939    97A      1.993968    98A      2.017932  
      99A      2.080517   100A      2.095108   101A      2.153649  
     102A      2.661717   103A      2.666627   104A      2.725407  
     105A      3.033092   106A      3.044420   107A      3.092501  
     108A      3.097283   109A      3.103945   110A      3.118268  
     111A      3.121695   112A      3.126528   113A      3.150320  
     114A      3.163124   115A      3.237763   116A      3.286510  
     117A      3.318478   118A      3.367896   119A      3.443326  
     120A      3.446750   121A      3.455616   122A      3.513992  
     123A      3.542245   124A      3.741764   125A      3.891368  
     126A      3.897665   127A      4.174262   128A      5.227913  
     129A      5.271853   130A      5.300074   131A      5.305825  
     132A      5.322599   133A      5.327300   134A      5.332735  
     135A      5.335164   136A      5.434357   137A      5.598074  
     138A      5.613887   139A      5.709244   140A      8.450642  
     141A     17.610453   142A     17.743817   143A     17.767493  
     144A     23.830868   145A     50.166344   146A     50.196385  
     147A     50.200949   148A     50.259436   149A    189.619418  

    Final Occupation by Irrep:
              A 
    DOCC [    29 ]

  @DF-RKS Final Energy:  -739.00446342363477

   => Energetics <=

    Nuclear Repulsion Energy =            362.4784818945482243
    One-Electron Energy =               -1749.2588526070667285
    Two-Electron Energy =                 695.4863635358165084
    DFT Exchange-Correlation Energy =     -47.7082174454162669
    Empirical Dispersion Energy =          -0.0022388015164726
    VV10 Nonlocal Energy =                  0.0000000000000000
    Total Energy =                       -739.0044634236347747

Computation Completed


Properties will be evaluated at   0.000000,   0.000000,   0.000000 [a0]

Properties computed using the SCF density matrix


 Multipole Moments:

 ------------------------------------------------------------------------------------
     Multipole            Electronic (a.u.)      Nuclear  (a.u.)        Total (a.u.)
 ------------------------------------------------------------------------------------

 L = 1.  Multiply by 2.5417464519 to convert [e a0] to [Debye]
 Dipole X            :         -4.8232472            6.2682940            1.4450468
 Dipole Y            :          1.9077322           -2.3101910           -0.4024588
 Dipole Z            :          0.0236702           -0.1318701           -0.1081999
 Magnitude           :                                                    1.5039416

 ------------------------------------------------------------------------------------

*** tstop() called on DESKTOP-26BCFJT at Thu Nov  3 13:01:22 2022
Module time:
	user time   =      27.98 seconds =       0.47 minutes
	system time =       0.59 seconds =       0.01 minutes
	total time  =         15 seconds =       0.25 minutes
Total time:
	user time   =      27.98 seconds =       0.47 minutes
	system time =       0.59 seconds =       0.01 minutes
	total time  =         15 seconds =       0.25 minutes


Properties will be evaluated at   0.000000,   0.000000,   0.000000 [a0]
OEProp: No title given, name of density matrix used for the following properties is 'SCF density'


  Wiberg Bond Indices using Orthogonal Lowdin Orbitals:

  Irrep: 1 Size: 9 x 9

                 1                   2                   3                   4                   5

    1     0.00000000000000     1.80199922064663     1.74925217990771     0.94469552803265     0.10661270521372
    2     1.80199922064663     0.00000000000000     0.19105347124705     0.16187891030625     0.02929345621525
    3     1.74925217990771     0.19105347124705     0.00000000000000     0.14840445745951     0.10413727093854
    4     0.94469552803265     0.16187891030625     0.14840445745951     0.00000000000000     1.38040868718021
    5     0.10661270521372     0.02929345621525     0.10413727093854     1.38040868718021     0.00000000000000
    6     1.79080096899729     0.19026728843057     0.19474241598451     0.15882829403973     0.04338921081679
    7     0.01959563027737     0.00095240272017     0.02228189163458     0.05628386177391     0.88857009651974
    8     0.01557064639385     0.00283012995495     0.00356337989346     0.05900840411479     0.90492110824871
    9     0.02102095574764     0.00141401398902     0.00978415137141     0.05833727375989     0.89007937834915

                 6                   7                   8                   9

    1     1.79080096899729     0.01959563027737     0.01557064639385     0.02102095574764
    2     0.19026728843057     0.00095240272017     0.00283012995495     0.00141401398902
    3     0.19474241598451     0.02228189163458     0.00356337989346     0.00978415137141
    4     0.15882829403973     0.05628386177391     0.05900840411479     0.05833727375989
    5     0.04338921081679     0.88857009651974     0.90492110824871     0.89007937834915
    6     0.00000000000000     0.00129436232188     0.00172413039293     0.00690131423848
    7     0.00129436232188     0.00000000000000     0.00976957288135     0.00709511935857
    8     0.00172413039293     0.00976957288135     0.00000000000000     0.00940757202338
    9     0.00690131423848     0.00709511935857     0.00940757202338     0.00000000000000



  Atomic Valences: 

 #  #
 Irrep: 1
      1:    6.449547835216853
      2:    2.379688893509894
      3:    2.423219218436771
      4:    2.967845416666942
      5:    4.347411913482106
      6:    2.387947985222172
      7:    1.005842937487567
      8:    1.006794943903410
      9:    1.004039778837532


    Psi4 stopped on: Thursday, 03 November 2022 01:01PM
    Psi4 wall time for execution: 0:00:14.53

*** Psi4 exiting successfully. Buy a developer a beer!
