2022-11-03:13:00:31,998 INFO     [psi4.driver.task_planner:266] PLANNING Atomic:  keywords={'FREEZE_CORE': 'TRUE', 'function_kwargs': {}}
2022-11-03:13:00:32,15 INFO     [psi4.driver.driver:499] Compute energy(): method=wb97x-d, basis=6-311+g*, molecule=default, nre=362.4638801552941
2022-11-03:13:00:48,71 INFO     [psi4.driver.driver:502] Return energy(): -739.0043590453888
gio,
    A. Alenaizan, A. M. James, S. Lehtola, J. P. Misiewicz, M. Scheurer,
    R. A. Shaw, J. B. Schriber, Y. Xie, Z. L. Glick, D. A. Sirianni,
    J. S. O'Brien, J. M. Waldrop, A. Kumar, E. G. Hohenstein,
    B. P. Pritchard, B. R. Brooks, H. F. Schaefer III, A. Yu. Sokolov,
    K. Patkowski, A. E. DePrince III, U. Bozkaya, R. A. King,
    F. A. Evangelista, J. M. Turney, T. D. Crawford, C. D. Sherrill,
    J. Chem. Phys. 152(18) 184108 (2020). https://doi.org/10.1063/5.0006002

                            Additional Code Authors
    E. T. Seidl, C. L. Janssen, E. F. Valeev, M. L. Leininger,
    J. F. Gonthier, R. M. Richard, H. R. McAlexander, M. Saitow, X. Wang,
    P. Verma, M. H. Lechner, and A. Jiang

             Previous Authors, Complete List of Code Contributors,
                       and Citations for Specific Modules
    https://github.com/psi4/psi4/blob/master/codemeta.json
    https://github.com/psi4/psi4/graphs/contributors
    http://psicode.org/psi4manual/master/introduction.html#citing-psifour

    -----------------------------------------------------------------------


    Psi4 started on: Thursday, 03 November 2022 01:00PM

    Process ID: 9329
    Host:       DESKTOP-26BCFJT
    PSIDATADIR: /home/chase/psi4conda/share/psi4
    Memory:     500.0 MiB
    Threads:    1
    
  ==> Input File <==

--------------------------------------------------------------------------
molecule { 
-1 1
 S   -0.399541   -0.266881    0.153020
 O   -0.964239   -1.329408   -0.658909
 O   -0.972635   -0.175629    1.479893
 O    1.177712   -0.768278    0.455976
 C    2.000732   -0.290845   -0.548652
 O   -0.274835    1.007845   -0.533694
 H    1.985167    0.803112   -0.571990
 H    3.018685   -0.651934   -0.363424
 H    1.654637   -0.652773   -1.525152
}
memory 1GB
set_num_threads(2)
psi4_io.set_default_path("/home/chase/temp/Psi4-mso4")
set freeze_core True
E, wfn = energy('wb97x-d/6-311+G*',return_wfn=True)
oeprop(wfn,"WIBERG_LOWDIN_INDICES")
clean()
--------------------------------------------------------------------------

  Memory set to 953.674 MiB by Python driver.
  Threads set to 2 by Python driver.

Scratch directory: /home/chase/temp/Psi4-mso4/

*** tstart() called on DESKTOP-26BCFJT
*** at Thu Nov  3 13:00:32 2022

   => Loading Basis Set <=

    Name: 6-311+G*
    Role: ORBITAL
    Keyword: BASIS
    atoms 1      entry S          line   430 file /home/chase/psi4conda/share/psi4/basis/6-311pgs.gbs 
    atoms 2-4, 6 entry O          line   172 file /home/chase/psi4conda/share/psi4/basis/6-311pgs.gbs 
    atoms 5      entry C          line   130 file /home/chase/psi4conda/share/psi4/basis/6-311pgs.gbs 
    atoms 7-9    entry H          line    47 file /home/chase/psi4conda/share/psi4/basis/6-311pgs.gbs 

   => WB97X-D: Empirical Dispersion <=

    Chai and Head-Gordon Dispersion Correction
    Chai, J.-D.; Head-Gordon, M. (2010), J. Chem. Phys., 132: 6615-6620

        s6 =       1.000000


         ---------------------------------------------------------
                                   SCF
               by Justin Turney, Rob Parrish, Andy Simmonett
                          and Daniel G. A. Smith
                              RKS Reference
                        2 Threads,    953 MiB Core
         ---------------------------------------------------------

  ==> Geometry <==

    Molecular point group: c1
    Full point group: C1

    Geometry (in Angstrom), charge = -1, multiplicity = 1:

       Center              X                  Y                   Z               Mass       
    ------------   -----------------  -----------------  -----------------  -----------------
         S           -0.412215262446     0.028405528209     0.083480155042    31.972071174400
         O           -0.976913262446    -1.034121471791    -0.728448844958    15.994914619570
         O           -0.985309262446     0.119657528209     1.410353155042    15.994914619570
         O            1.165037737554    -0.472991471791     0.386436155042    15.994914619570
         C            1.988057737554     0.004441528209    -0.618191844958    12.000000000000
         O           -0.287509262446     1.303131528209    -0.603233844958    15.994914619570
         H            1.972492737554     1.098398528209    -0.641529844958     1.007825032230
         H            3.006010737554    -0.356647471791    -0.432963844958     1.007825032230
         H            1.641962737554    -0.357486471791    -1.594691844958     1.007825032230

  Running in c1 symmetry.

  Rotational constants: A =      0.16955  B =      0.09469  C =      0.09390 [cm^-1]
  Rotational constants: A =   5082.96469  B =   2838.79788  C =   2814.96229 [MHz]
  Nuclear repulsion =  362.463880155294078

  Charge       = -1
  Multiplicity = 1
  Electrons    = 58
  Nalpha       = 29
  Nbeta        = 29

  ==> Algorithm <==

  SCF Algorithm Type is DF.
  DIIS enabled.
  MOM disabled.
  Fractional occupation disabled.
  Guess Type is SAD.
  Energy threshold   = 1.00e-06
  Density threshold  = 1.00e-06
  Integral threshold = 1.00e-12

  ==> Primary Basis <==

  Basis Set: 6-311+G*
    Blend: 6-311+G*
    Number of shells: 73
    Number of basis functions: 149
    Number of Cartesian functions: 155
    Spherical Harmonics?: true
    Max angular momentum: 2

  ==> DFT Potential <==

   => LibXC <=

    Version 5.1.5
    S. Lehtola, C. Steigemann, M. J. Oliveira, and M. A. Marques, SoftwareX 7, 1 (2018) (10.1016/j.softx.2017.11.002)

   => Composite Functional: WB97X-D <= 

    wB97X-D Hyb-GGA Exchange-Correlation Functional

    J.-D. Chai and M. Head-Gordon, Phys. Chem. Chem. Phys. 10, 6615 (2008) (10.1039/B810189B)

    Deriv               =              1
    GGA                 =           TRUE
    Meta                =          FALSE

    Exchange Hybrid     =           TRUE
    MP2 Hybrid          =          FALSE

   => Exchange-Correlation Functionals <=

    1.0000   wB97X-D range-separated functional

   => Exact (HF) Exchange <=

    0.7780            HF,LR [omega = 0.2000]
    0.2220               HF 

   => LibXC Density Thresholds  <==

    XC_HYB_GGA_XC_WB97X_D:  1.00E-14 

   => Molecular Quadrature <=

    Radial Scheme          =       TREUTLER
    Pruning Scheme         =           NONE
    Nuclear Scheme         =       TREUTLER

    Blocking Scheme        =         OCTREE
    BS radius alpha        =              1
    Pruning alpha          =              1
    Radial Points          =             75
    Spherical Points       =            302
    Total Points           =         194306
    Total Blocks           =           1498
    Max Points             =            256
    Max Functions          =            147
    Weights Tolerance      =       1.00E-15

   => Loading Basis Set <=

    Name: (6-311+G* AUX)
    Role: JKFIT
    Keyword: DF_BASIS_SCF
    atoms 1      entry S          line   768 file /home/chase/psi4conda/share/psi4/basis/heavy-aug-cc-pvtz-jkfit.gbs 
    atoms 2-4, 6 entry O          line   324 file /home/chase/psi4conda/share/psi4/basis/heavy-aug-cc-pvtz-jkfit.gbs 
    atoms 5      entry C          line   200 file /home/chase/psi4conda/share/psi4/basis/heavy-aug-cc-pvtz-jkfit.gbs 
    atoms 7-9    entry H          line   116 file /home/chase/psi4conda/share/psi4/basis/heavy-aug-cc-pvtz-jkfit.gbs 

  ==> Integral Setup <==

  DFHelper Memory: AOs need 0.374 GiB; user supplied 0.374 GiB. Using in-core AOs.

  ==> MemDFJK: Density-Fitted J/K Matrices <==

    J tasked:                   Yes
    K tasked:                   Yes
    wK tasked:                  Yes
    Omega:                2.000E-01
    OpenMP threads:               2
    Memory [MiB]:               383
    Algorithm:                 Core
    Schwarz Cutoff:           1E-12
    Mask sparsity (%):       2.7026
    Fitting Condition:        1E-10

   => Auxiliary Basis Set <=

  Basis Set: (6-311+G* AUX)
    Blend: HEAVY-AUG-CC-PVTZ-JKFIT
    Number of shells: 222
    Number of basis functions: 756
    Number of Cartesian functions: 940
    Spherical Harmonics?: true
    Max angular momentum: 4

  Cached 50.0% of DFT collocation blocks in 0.302 [GiB].

  Minimum eigenvalue in the overlap matrix is 4.6970037189E-04.
  Reciprocal condition number of the overlap matrix is 4.8457798459E-05.
    Using symmetric orthogonalization.

  ==> Pre-Iterations <==

  SCF Guess: Superposition of Atomic Densities via on-the-fly atomic UHF (no occupation information).

   -------------------------
    Irrep   Nso     Nmo    
   -------------------------
     A        149     149 
   -------------------------
    Total     149     149
   -------------------------

  ==> Iterations <==

                           Total Energy        Delta E     RMS |[F,P]|

   @DF-RKS iter SAD:  -738.93534446856484   -7.38935e+02   0.00000e+00 
   @DF-RKS iter   1:  -738.52299354050251    4.12351e-01   7.84521e-03 ADIIS/DIIS
   @DF-RKS iter   2:  -738.44758059971832    7.54129e-02   8.84733e-03 ADIIS/DIIS
   @DF-RKS iter   3:  -738.99972396738542   -5.52143e-01   7.99903e-04 ADIIS/DIIS
   @DF-RKS iter   4:  -739.00370314009058   -3.97917e-03   2.79625e-04 ADIIS/DIIS
   @DF-RKS iter   5:  -739.00425919022382   -5.56050e-04   1.13830e-04 ADIIS/DIIS
   @DF-RKS iter   6:  -739.00435323805459   -9.40478e-05   2.43779e-05 DIIS
   @DF-RKS iter   7:  -739.00435877205427   -5.53400e-06   4.62988e-06 DIIS
   @DF-RKS iter   8:  -739.00435901364449   -2.41590e-07   1.88898e-06 DIIS
   @DF-RKS iter   9:  -739.00435904538881   -3.17443e-08   7.87172e-07 DIIS
  Energy and wave function converged.


  ==> Post-Iterations <==

   Electrons on quadrature grid:
      Ntotal   =   58.0000142005 ; deviation = 1.420e-05 

    Orbital Energies [Eh]
    ---------------------

    Doubly Occupied:                                                      

       1A    -89.061515     2A    -19.111126     3A    -19.047840  
       4A    -19.042013     5A    -19.039935     6A    -10.182039  
       7A     -8.073613     8A     -6.022940     9A     -6.020718  
      10A     -6.020431    11A     -1.085288    12A     -0.974155  
      13A     -0.920618    14A     -0.914926    15A     -0.648640  
      16A     -0.517853    17A     -0.441590    18A     -0.412347  
      19A     -0.407989    20A     -0.369966    21A     -0.357457  
      22A     -0.313907    23A     -0.258933    24A     -0.253899  
      25A     -0.241097    26A     -0.238857    27A     -0.208967  
      28A     -0.188774    29A     -0.165846  

    Virtual:                                                              

      30A      0.179114    31A      0.216572    32A      0.222004  
      33A      0.227641    34A      0.256282    35A      0.257244  
      36A      0.260038    37A      0.299340    38A      0.335644  
      39A      0.350913    40A      0.360639    41A      0.380737  
      42A      0.382550    43A      0.405404    44A      0.412137  
      45A      0.418687    46A      0.441509    47A      0.447285  
      48A      0.463408    49A      0.477856    50A      0.486448  
      51A      0.494360    52A      0.495256    53A      0.502788  
      54A      0.516930    55A      0.523140    56A      0.527357  
      57A      0.539290    58A      0.547187    59A      0.565996  
      60A      0.602669    61A      0.609901    62A      0.634707  
      63A      0.653998    64A      0.667881    65A      0.706192  
      66A      0.723790    67A      0.775002    68A      0.846374  
      69A      0.873698    70A      0.899076    71A      0.954077  
      72A      1.002122    73A      1.081089    74A      1.179907  
      75A      1.234956    76A      1.254722    77A      1.279314  
      78A      1.303596    79A      1.323600    80A      1.369325  
      81A      1.382136    82A      1.392142    83A      1.397930  
      84A      1.406827    85A      1.416637    86A      1.442942  
      87A      1.455628    88A      1.478461    89A      1.520562  
      90A      1.604707    91A      1.641883    92A      1.795258  
      93A      1.801631    94A      1.825264    95A      1.843098  
      96A      1.921764    97A      1.993552    98A      2.017321  
      99A      2.082846   100A      2.092362   101A      2.155114  
     102A      2.661572   103A      2.665625   104A      2.725024  
     105A      3.033280   106A      3.043900   107A      3.091802  
     108A      3.098248   109A      3.104241   110A      3.118286  
     111A      3.121225   112A      3.127016   113A      3.150026  
     114A      3.163492   115A      3.236960   116A      3.287033  
     117A      3.316804   118A      3.367696   119A      3.442683  
     120A      3.449398   121A      3.453223   122A      3.511999  
     123A      3.543234   124A      3.741675   125A      3.890530  
     126A      3.898050   127A      4.174536   128A      5.227882  
     129A      5.270949   130A      5.301093   131A      5.304935  
     132A      5.322105   133A      5.327846   134A      5.331783  
     135A      5.335968   136A      5.433850   137A      5.599019  
     138A      5.613296   139A      5.709262   140A      8.450823  
     141A     17.610863   142A     17.745261   143A     17.765986  
     144A     23.830326   145A     50.165762   146A     50.198041  
     147A     50.199453   148A     50.259232   149A    189.619637  

    Final Occupation by Irrep:
              A 
    DOCC [    29 ]

  @DF-RKS Final Energy:  -739.00435904538881

   => Energetics <=

    Nuclear Repulsion Energy =            362.4638801552940777
    One-Electron Energy =               -1749.2263578535512352
    Two-Electron Energy =                 695.4684291604648934
    DFT Exchange-Correlation Energy =     -47.7080721314831635
    Empirical Dispersion Energy =          -0.0022383761134867
    VV10 Nonlocal Energy =                  0.0000000000000000
    Total Energy =                       -739.0043590453888100

Computation Completed


Properties will be evaluated at   0.000000,   0.000000,   0.000000 [a0]

Properties computed using the SCF density matrix


 Multipole Moments:

 ------------------------------------------------------------------------------------
     Multipole            Electronic (a.u.)      Nuclear  (a.u.)        Total (a.u.)
 ------------------------------------------------------------------------------------

 L = 1.  Multiply by 2.5417464519 to convert [e a0] to [Debye]
 Dipole X            :         -4.7356866            6.1903952            1.4547085
 Dipole Y            :         -0.3143105            0.3605807            0.0462702
 Dipole Z            :          2.0423626           -2.4978422           -0.4554796
 Magnitude           :                                                    1.5250507

 ------------------------------------------------------------------------------------

*** tstop() called on DESKTOP-26BCFJT at Thu Nov  3 13:00:48 2022
Module time:
	user time   =      29.19 seconds =       0.49 minutes
	system time =       1.12 seconds =       0.02 minutes
	total time  =         16 seconds =       0.27 minutes
Total time:
	user time   =      29.19 seconds =       0.49 minutes
	system time =       1.12 seconds =       0.02 minutes
	total time  =         16 seconds =       0.27 minutes


Properties will be evaluated at   0.000000,   0.000000,   0.000000 [a0]
OEProp: No title given, name of density matrix used for the following properties is 'SCF density'


  Wiberg Bond Indices using Orthogonal Lowdin Orbitals:

  Irrep: 1 Size: 9 x 9

                 1                   2                   3                   4                   5

    1     0.00000000000000     1.78792719848676     1.79879618608720     0.94503451728467     0.10681437430893
    2     1.78792719848676     0.00000000000000     0.19245373055146     0.15905350518128     0.04341783740007
    3     1.79879618608720     0.19245373055146     0.00000000000000     0.16241078587932     0.02941481164899
    4     0.94503451728467     0.15905350518128     0.16241078587932     0.00000000000000     1.38113439570406
    5     0.10681437430893     0.04341783740007     0.02941481164899     1.38113439570406     0.00000000000000
    6     1.75519843681771     0.19364841109573     0.18987711909740     0.14810023938816     0.10326892372602
    7     0.01964633882350     0.00129014589940     0.00095953841448     0.05638177425617     0.88866979513456
    8     0.01551955260660     0.00171187312959     0.00282845606771     0.05906781260900     0.90494472508076
    9     0.02110364850178     0.00686197838623     0.00142349068164     0.05841572223712     0.89005696719195

                 6                   7                   8                   9

    1     1.75519843681771     0.01964633882350     0.01551955260660     0.02110364850178
    2     0.19364841109573     0.00129014589940     0.00171187312959     0.00686197838623
    3     0.18987711909740     0.00095953841448     0.00282845606771     0.00142349068164
    4     0.14810023938816     0.05638177425617     0.05906781260900     0.05841572223712
    5     0.10326892372602     0.88866979513456     0.90494472508076     0.89005696719195
    6     0.00000000000000     0.02212335656252     0.00351565543341     0.00968187971334
    7     0.02212335656252     0.00000000000000     0.00976699097775     0.00710601993189
    8     0.00351565543341     0.00976699097775     0.00000000000000     0.00940632086302
    9     0.00968187971334     0.00710601993189     0.00940632086302     0.00000000000000



  Atomic Valences: 

 #  #
 Irrep: 1
      1:    6.450040252917139
      2:    2.386364680130520
      3:    2.378164118428220
      4:    2.969598752539797
      5:    4.347721830195338
      6:    2.425414021834290
      7:    1.005943960000268
      8:    1.006761386767830
      9:    1.004056027506967


    Psi4 stopped on: Thursday, 03 November 2022 01:00PM
    Psi4 wall time for execution: 0:00:16.21

*** Psi4 exiting successfully. Buy a developer a beer!
