2022-11-03:13:00:49,734 INFO     [psi4.driver.task_planner:266] PLANNING Atomic:  keywords={'FREEZE_CORE': 'TRUE', 'function_kwargs': {}}
2022-11-03:13:00:49,740 INFO     [psi4.driver.driver:499] Compute energy(): method=wb97x-d, basis=6-311+g*, molecule=default, nre=361.2786414883208
2022-11-03:13:01:07,549 INFO     [psi4.driver.driver:502] Return energy(): -739.0032908163201
o,
    A. Alenaizan, A. M. James, S. Lehtola, J. P. Misiewicz, M. Scheurer,
    R. A. Shaw, J. B. Schriber, Y. Xie, Z. L. Glick, D. A. Sirianni,
    J. S. O'Brien, J. M. Waldrop, A. Kumar, E. G. Hohenstein,
    B. P. Pritchard, B. R. Brooks, H. F. Schaefer III, A. Yu. Sokolov,
    K. Patkowski, A. E. DePrince III, U. Bozkaya, R. A. King,
    F. A. Evangelista, J. M. Turney, T. D. Crawford, C. D. Sherrill,
    J. Chem. Phys. 152(18) 184108 (2020). https://doi.org/10.1063/5.0006002

                            Additional Code Authors
    E. T. Seidl, C. L. Janssen, E. F. Valeev, M. L. Leininger,
    J. F. Gonthier, R. M. Richard, H. R. McAlexander, M. Saitow, X. Wang,
    P. Verma, M. H. Lechner, and A. Jiang

             Previous Authors, Complete List of Code Contributors,
                       and Citations for Specific Modules
    https://github.com/psi4/psi4/blob/master/codemeta.json
    https://github.com/psi4/psi4/graphs/contributors
    http://psicode.org/psi4manual/master/introduction.html#citing-psifour

    -----------------------------------------------------------------------


    Psi4 started on: Thursday, 03 November 2022 01:00PM

    Process ID: 9341
    Host:       DESKTOP-26BCFJT
    PSIDATADIR: /home/chase/psi4conda/share/psi4
    Memory:     500.0 MiB
    Threads:    1
    
  ==> Input File <==

--------------------------------------------------------------------------
molecule { 
-1 1
 S   -0.421984    0.110305   -0.084290
 O   -1.117325    0.611058   -1.253872
 O   -0.405120   -1.339538    0.019645
 O    1.183396    0.559688   -0.346394
 C    2.017663   -0.541248   -0.389721
 O   -0.773675    0.787072    1.148785
 H    1.738175   -1.213133   -1.209146
 H    3.044495   -0.186332   -0.540928
 H    1.960061   -1.112666    0.542986
}
memory 1GB
set_num_threads(2)
psi4_io.set_default_path("/home/chase/temp/Psi4-mso4")
set freeze_core True
E, wfn = energy('wb97x-d/6-311+G*',return_wfn=True)
oeprop(wfn,"WIBERG_LOWDIN_INDICES")
clean()
--------------------------------------------------------------------------

  Memory set to 953.674 MiB by Python driver.
  Threads set to 2 by Python driver.

Scratch directory: /home/chase/temp/Psi4-mso4/

*** tstart() called on DESKTOP-26BCFJT
*** at Thu Nov  3 13:00:49 2022

   => Loading Basis Set <=

    Name: 6-311+G*
    Role: ORBITAL
    Keyword: BASIS
    atoms 1      entry S          line   430 file /home/chase/psi4conda/share/psi4/basis/6-311pgs.gbs 
    atoms 2-4, 6 entry O          line   172 file /home/chase/psi4conda/share/psi4/basis/6-311pgs.gbs 
    atoms 5      entry C          line   130 file /home/chase/psi4conda/share/psi4/basis/6-311pgs.gbs 
    atoms 7-9    entry H          line    47 file /home/chase/psi4conda/share/psi4/basis/6-311pgs.gbs 

   => WB97X-D: Empirical Dispersion <=

    Chai and Head-Gordon Dispersion Correction
    Chai, J.-D.; Head-Gordon, M. (2010), J. Chem. Phys., 132: 6615-6620

        s6 =       1.000000


         ---------------------------------------------------------
                                   SCF
               by Justin Turney, Rob Parrish, Andy Simmonett
                          and Daniel G. A. Smith
                              RKS Reference
                        2 Threads,    953 MiB Core
         ---------------------------------------------------------

  ==> Geometry <==

    Molecular point group: c1
    Full point group: C1

    Geometry (in Angstrom), charge = -1, multiplicity = 1:

       Center              X                  Y                   Z               Mass       
    ------------   -----------------  -----------------  -----------------  -----------------
         S           -0.419441280923     0.070753366590     0.055338409485    31.972071174400
         O           -1.114782280923     0.571506366590    -1.114243590515    15.994914619570
         O           -0.402577280923    -1.379089633410     0.159273409485    15.994914619570
         O            1.185938719077     0.520136366590    -0.206765590515    15.994914619570
         C            2.020205719077    -0.580799633410    -0.250092590515    12.000000000000
         O           -0.771132280923     0.747520366590     1.288413409485    15.994914619570
         H            1.740717719077    -1.252684633410    -1.069517590515     1.007825032230
         H            3.047037719077    -0.225883633410    -0.401299590515     1.007825032230
         H            1.962603719077    -1.152217633410     0.682614409485     1.007825032230

  Running in c1 symmetry.

  Rotational constants: A =      0.16986  B =      0.09299  C =      0.09229 [cm^-1]
  Rotational constants: A =   5092.37502  B =   2787.75340  C =   2766.85603 [MHz]
  Nuclear repulsion =  361.278641488320773

  Charge       = -1
  Multiplicity = 1
  Electrons    = 58
  Nalpha       = 29
  Nbeta        = 29

  ==> Algorithm <==

  SCF Algorithm Type is DF.
  DIIS enabled.
  MOM disabled.
  Fractional occupation disabled.
  Guess Type is SAD.
  Energy threshold   = 1.00e-06
  Density threshold  = 1.00e-06
  Integral threshold = 1.00e-12

  ==> Primary Basis <==

  Basis Set: 6-311+G*
    Blend: 6-311+G*
    Number of shells: 73
    Number of basis functions: 149
    Number of Cartesian functions: 155
    Spherical Harmonics?: true
    Max angular momentum: 2

  ==> DFT Potential <==

   => LibXC <=

    Version 5.1.5
    S. Lehtola, C. Steigemann, M. J. Oliveira, and M. A. Marques, SoftwareX 7, 1 (2018) (10.1016/j.softx.2017.11.002)

   => Composite Functional: WB97X-D <= 

    wB97X-D Hyb-GGA Exchange-Correlation Functional

    J.-D. Chai and M. Head-Gordon, Phys. Chem. Chem. Phys. 10, 6615 (2008) (10.1039/B810189B)

    Deriv               =              1
    GGA                 =           TRUE
    Meta                =          FALSE

    Exchange Hybrid     =           TRUE
    MP2 Hybrid          =          FALSE

   => Exchange-Correlation Functionals <=

    1.0000   wB97X-D range-separated functional

   => Exact (HF) Exchange <=

    0.7780            HF,LR [omega = 0.2000]
    0.2220               HF 

   => LibXC Density Thresholds  <==

    XC_HYB_GGA_XC_WB97X_D:  1.00E-14 

   => Molecular Quadrature <=

    Radial Scheme          =       TREUTLER
    Pruning Scheme         =           NONE
    Nuclear Scheme         =       TREUTLER

    Blocking Scheme        =         OCTREE
    BS radius alpha        =              1
    Pruning alpha          =              1
    Radial Points          =             75
    Spherical Points       =            302
    Total Points           =         194340
    Total Blocks           =           1506
    Max Points             =            256
    Max Functions          =            146
    Weights Tolerance      =       1.00E-15

   => Loading Basis Set <=

    Name: (6-311+G* AUX)
    Role: JKFIT
    Keyword: DF_BASIS_SCF
    atoms 1      entry S          line   768 file /home/chase/psi4conda/share/psi4/basis/heavy-aug-cc-pvtz-jkfit.gbs 
    atoms 2-4, 6 entry O          line   324 file /home/chase/psi4conda/share/psi4/basis/heavy-aug-cc-pvtz-jkfit.gbs 
    atoms 5      entry C          line   200 file /home/chase/psi4conda/share/psi4/basis/heavy-aug-cc-pvtz-jkfit.gbs 
    atoms 7-9    entry H          line   116 file /home/chase/psi4conda/share/psi4/basis/heavy-aug-cc-pvtz-jkfit.gbs 

  ==> Integral Setup <==

  DFHelper Memory: AOs need 0.374 GiB; user supplied 0.374 GiB. Using in-core AOs.

  ==> MemDFJK: Density-Fitted J/K Matrices <==

    J tasked:                   Yes
    K tasked:                   Yes
    wK tasked:                  Yes
    Omega:                2.000E-01
    OpenMP threads:               2
    Memory [MiB]:               382
    Algorithm:                 Core
    Schwarz Cutoff:           1E-12
    Mask sparsity (%):       2.8107
    Fitting Condition:        1E-10

   => Auxiliary Basis Set <=

  Basis Set: (6-311+G* AUX)
    Blend: HEAVY-AUG-CC-PVTZ-JKFIT
    Number of shells: 222
    Number of basis functions: 756
    Number of Cartesian functions: 940
    Spherical Harmonics?: true
    Max angular momentum: 4

  Cached 50.0% of DFT collocation blocks in 0.305 [GiB].

  Minimum eigenvalue in the overlap matrix is 4.8137896542E-04.
  Reciprocal condition number of the overlap matrix is 5.0136401825E-05.
    Using symmetric orthogonalization.

  ==> Pre-Iterations <==

  SCF Guess: Superposition of Atomic Densities via on-the-fly atomic UHF (no occupation information).

   -------------------------
    Irrep   Nso     Nmo    
   -------------------------
     A        149     149 
   -------------------------
    Total     149     149
   -------------------------

  ==> Iterations <==

                           Total Energy        Delta E     RMS |[F,P]|

   @DF-RKS iter SAD:  -738.90972379580319   -7.38910e+02   0.00000e+00 
   @DF-RKS iter   1:  -738.51865887778467    3.91065e-01   7.86760e-03 ADIIS/DIIS
   @DF-RKS iter   2:  -738.44100857260980    7.76503e-02   8.88540e-03 ADIIS/DIIS
   @DF-RKS iter   3:  -738.99866994336253   -5.57661e-01   8.00603e-04 ADIIS/DIIS
   @DF-RKS iter   4:  -739.00261248547326   -3.94254e-03   2.85140e-04 ADIIS/DIIS
   @DF-RKS iter   5:  -739.00318951484769   -5.77029e-04   1.14492e-04 ADIIS/DIIS
   @DF-RKS iter   6:  -739.00328517974378   -9.56649e-05   2.38146e-05 DIIS
   @DF-RKS iter   7:  -739.00329054195117   -5.36221e-06   4.58152e-06 DIIS
   @DF-RKS iter   8:  -739.00329078730852   -2.45357e-07   1.72369e-06 DIIS
   @DF-RKS iter   9:  -739.00329081632015   -2.90116e-08   6.54933e-07 DIIS
  Energy and wave function converged.


  ==> Post-Iterations <==

   Electrons on quadrature grid:
      Ntotal   =   58.0000018176 ; deviation = 1.818e-06 

    Orbital Energies [Eh]
    ---------------------

    Doubly Occupied:                                                      

       1A    -89.061502     2A    -19.109134     3A    -19.047537  
       4A    -19.040761     5A    -19.040711     6A    -10.184016  
       7A     -8.073529     8A     -6.022886     9A     -6.020664  
      10A     -6.020301    11A     -1.083578    12A     -0.972934  
      13A     -0.920018    14A     -0.914519    15A     -0.650285  
      16A     -0.516812    17A     -0.441549    18A     -0.411587  
      19A     -0.408232    20A     -0.364987    21A     -0.361864  
      22A     -0.310137    23A     -0.263571    24A     -0.253567  
      25A     -0.239904    26A     -0.239260    27A     -0.209300  
      28A     -0.184758    29A     -0.164960  

    Virtual:                                                              

      30A      0.178252    31A      0.215822    32A      0.221527  
      33A      0.226250    34A      0.255200    35A      0.256157  
      36A      0.260234    37A      0.297100    38A      0.333080  
      39A      0.356024    40A      0.362484    41A      0.383917  
      42A      0.386963    43A      0.398008    44A      0.400110  
      45A      0.416187    46A      0.446627    47A      0.447394  
      48A      0.457582    49A      0.472799    50A      0.488659  
      51A      0.491415    52A      0.494155    53A      0.505225  
      54A      0.518576    55A      0.523474    56A      0.526746  
      57A      0.535617    58A      0.550565    59A      0.570913  
      60A      0.598464    61A      0.608104    62A      0.635315  
      63A      0.655218    64A      0.661792    65A      0.704602  
      66A      0.723069    67A      0.775849    68A      0.841307  
      69A      0.872056    70A      0.897035    71A      0.957298  
      72A      1.005103    73A      1.079425    74A      1.171833  
      75A      1.226179    76A      1.236277    77A      1.291701  
      78A      1.317167    79A      1.330909    80A      1.372546  
      81A      1.381444    82A      1.400471    83A      1.401882  
      84A      1.414195    85A      1.420676    86A      1.436981  
      87A      1.471358    88A      1.478735    89A      1.499032  
      90A      1.601345    91A      1.646700    92A      1.800651  
      93A      1.821678    94A      1.833694    95A      1.839478  
      96A      1.931630    97A      1.981892    98A      2.024719  
      99A      2.083723   100A      2.096100   101A      2.140560  
     102A      2.645475   103A      2.661037   104A      2.722342  
     105A      3.033070   106A      3.046183   107A      3.093450  
     108A      3.099672   109A      3.101577   110A      3.118113  
     111A      3.120315   112A      3.130374   113A      3.147299  
     114A      3.167968   115A      3.231217   116A      3.285121  
     117A      3.323742   118A      3.388506   119A      3.428622  
     120A      3.445839   121A      3.462336   122A      3.522810  
     123A      3.528485   124A      3.738201   125A      3.894206  
     126A      3.900990   127A      4.183066   128A      5.221600  
     129A      5.283322   130A      5.293042   131A      5.307478  
     132A      5.322336   133A      5.329644   134A      5.334164  
     135A      5.338993   136A      5.425660   137A      5.599552  
     138A      5.601486   139A      5.719672   140A      8.448552  
     141A     17.608855   142A     17.746700   143A     17.756585  
     144A     23.825275   145A     50.165734   146A     50.197095  
     147A     50.208989   148A     50.260332   149A    189.616452  

    Final Occupation by Irrep:
              A 
    DOCC [    29 ]

  @DF-RKS Final Energy:  -739.00329081632015

   => Energetics <=

    Nuclear Repulsion Energy =            361.2786414883207726
    One-Electron Energy =               -1746.8761153420157370
    Two-Electron Energy =                 694.3019351248552766
    DFT Exchange-Correlation Energy =     -47.7055322328353100
    Empirical Dispersion Energy =          -0.0022198546452595
    VV10 Nonlocal Energy =                  0.0000000000000000
    Total Energy =                       -739.0032908163201455

Computation Completed


Properties will be evaluated at   0.000000,   0.000000,   0.000000 [a0]

Properties computed using the SCF density matrix


 Multipole Moments:

 ------------------------------------------------------------------------------------
     Multipole            Electronic (a.u.)      Nuclear  (a.u.)        Total (a.u.)
 ------------------------------------------------------------------------------------

 L = 1.  Multiply by 2.5417464519 to convert [e a0] to [Debye]
 Dipole X            :         -4.8489254            6.3118893            1.4629639
 Dipole Y            :          2.0014031           -2.4622037           -0.4608007
 Dipole Z            :          0.5604265           -0.7368470           -0.1764205
 Magnitude           :                                                    1.5439317

 ------------------------------------------------------------------------------------

*** tstop() called on DESKTOP-26BCFJT at Thu Nov  3 13:01:07 2022
Module time:
	user time   =      33.68 seconds =       0.56 minutes
	system time =       0.99 seconds =       0.02 minutes
	total time  =         18 seconds =       0.30 minutes
Total time:
	user time   =      33.68 seconds =       0.56 minutes
	system time =       0.99 seconds =       0.02 minutes
	total time  =         18 seconds =       0.30 minutes


Properties will be evaluated at   0.000000,   0.000000,   0.000000 [a0]
OEProp: No title given, name of density matrix used for the following properties is 'SCF density'


  Wiberg Bond Indices using Orthogonal Lowdin Orbitals:

  Irrep: 1 Size: 9 x 9

                 1                   2                   3                   4                   5

    1     0.00000000000000     1.79624781804354     1.75593860057278     0.93628292454597     0.10149531345221
    2     1.79624781804354     0.00000000000000     0.19299996645754     0.16260695765801     0.03004805451972
    3     1.75593860057278     0.19299996645754     0.00000000000000     0.14569360333647     0.10851788368297
    4     0.93628292454597     0.16260695765801     0.14569360333647     0.00000000000000     1.38302901187111
    5     0.10149531345221     0.03004805451972     0.10851788368297     1.38302901187111     0.00000000000000
    6     1.79609255751613     0.19430599780988     0.19310242739288     0.16271112861686     0.03000176135231
    7     0.01844565768296     0.00154749192755     0.01629999481869     0.05751953022399     0.89371419435714
    8     0.01589352837701     0.00256186845774     0.00367800340680     0.05892322022596     0.90439360103597
    9     0.01921767758603     0.00108961866868     0.01759082095499     0.05673910286235     0.89247633164566

                 6                   7                   8                   9

    1     1.79609255751613     0.01844565768296     0.01589352837701     0.01921767758603
    2     0.19430599780988     0.00154749192755     0.00256186845774     0.00108961866868
    3     0.19310242739288     0.01629999481869     0.00367800340680     0.01759082095499
    4     0.16271112861686     0.05751953022399     0.05892322022596     0.05673910286235
    5     0.03000176135231     0.89371419435714     0.90439360103597     0.89247633164566
    6     0.00000000000000     0.00110305530046     0.00254776546163     0.00161272458923
    7     0.00110305530046     0.00000000000000     0.00953251191922     0.00686966616048
    8     0.00254776546163     0.00953251191922     0.00000000000000     0.00958812403906
    9     0.00161272458923     0.00686966616048     0.00958812403906     0.00000000000000



  Atomic Valences: 

 #  #
 Irrep: 1
      1:    6.439614077776623
      2:    2.381407773542648
      3:    2.433821300623122
      4:    2.963505479340726
      5:    4.343676151917085
      6:    2.381477418039379
      7:    1.005032102390480
      8:    1.007118622923401
      9:    1.005184066506465


    Psi4 stopped on: Thursday, 03 November 2022 01:01PM
    Psi4 wall time for execution: 0:00:17.90

*** Psi4 exiting successfully. Buy a developer a beer!
