9
 energy: -23.454965749358 gnorm: 0.000126991796 xtb: 6.5.1 (b24c23e)
S           -0.43467488891373       -0.32599523443230        0.11519243358368
O           -1.21422916162534       -1.43492363147481       -0.39958543835308
O           -0.77114706018403        0.05449438791190        1.47323603665064
O            1.12473414463736       -0.95766333947220        0.24860932313499
C            2.02466900263602       -0.25475621596591       -0.52966346594860
O           -0.31975513947070        0.79478419764609       -0.80346850628390
H            2.07882297230500        0.79384776014026       -0.21630987593315
H            3.01001384398448       -0.72309609664634       -0.41719686565614
H            1.72724928663096       -0.27148181770670       -1.58374664119445
