9
 energy: -23.454965421195 gnorm: 0.000773353608 xtb: 6.5.1 (b24c23e)
S           -0.42198355560646        0.11030525256970       -0.08429045509965
O           -1.11732523729912        0.61105825627133       -1.25387217323082
O           -0.40512023680275       -1.33953752519403        0.01964531621221
O            1.18339625998982        0.55968847351183       -0.34639379625981
C            2.01766272396251       -0.54124795292367       -0.38972130850989
O           -0.77367471465337        0.78707200684857        1.14878488799653
H            1.73817487759152       -1.21313321181637       -1.20914594943430
H            3.04449502573026       -0.18633212363416       -0.54092764401003
H            1.96006084708758       -1.11266617563321        0.54298614233575
