2022-11-03:12:59:40,712 INFO     [psi4.driver.task_planner:266] PLANNING Atomic:  keywords={'FREEZE_CORE': 'TRUE', 'function_kwargs': {}}
2022-11-03:12:59:40,718 INFO     [psi4.driver.driver:499] Compute energy(): method=wb97x-d, basis=6-311+g*, molecule=default, nre=363.0750351737195
2022-11-03:12:59:55,255 INFO     [psi4.driver.driver:502] Return energy(): -739.0025624125321
o,
    A. Alenaizan, A. M. James, S. Lehtola, J. P. Misiewicz, M. Scheurer,
    R. A. Shaw, J. B. Schriber, Y. Xie, Z. L. Glick, D. A. Sirianni,
    J. S. O'Brien, J. M. Waldrop, A. Kumar, E. G. Hohenstein,
    B. P. Pritchard, B. R. Brooks, H. F. Schaefer III, A. Yu. Sokolov,
    K. Patkowski, A. E. DePrince III, U. Bozkaya, R. A. King,
    F. A. Evangelista, J. M. Turney, T. D. Crawford, C. D. Sherrill,
    J. Chem. Phys. 152(18) 184108 (2020). https://doi.org/10.1063/5.0006002

                            Additional Code Authors
    E. T. Seidl, C. L. Janssen, E. F. Valeev, M. L. Leininger,
    J. F. Gonthier, R. M. Richard, H. R. McAlexander, M. Saitow, X. Wang,
    P. Verma, M. H. Lechner, and A. Jiang

             Previous Authors, Complete List of Code Contributors,
                       and Citations for Specific Modules
    https://github.com/psi4/psi4/blob/master/codemeta.json
    https://github.com/psi4/psi4/graphs/contributors
    http://psicode.org/psi4manual/master/introduction.html#citing-psifour

    -----------------------------------------------------------------------


    Psi4 started on: Thursday, 03 November 2022 12:59PM

    Process ID: 9293
    Host:       DESKTOP-26BCFJT
    PSIDATADIR: /home/chase/psi4conda/share/psi4
    Memory:     500.0 MiB
    Threads:    1
    
  ==> Input File <==

--------------------------------------------------------------------------
molecule { 
-1 1
 S   -0.378928    0.111235   -0.006511
 O   -0.433118    0.493525   -1.407682
 O   -0.670527   -1.295019    0.216456
 O    1.237446    0.280818    0.416185
 C    1.982614   -0.563729   -0.393474
 O   -1.050787    1.019852    0.895508
 H    1.310322   -1.079945   -1.081251
 H    2.716311    0.014629   -0.970062
 H    2.512352   -1.306159    0.217894
}
memory 1GB
set_num_threads(2)
psi4_io.set_default_path("/home/chase/temp/Psi4-mso4")
set freeze_core True
E, wfn = energy('wb97x-d/6-311+G*',return_wfn=True)
oeprop(wfn,"WIBERG_LOWDIN_INDICES")
clean()
--------------------------------------------------------------------------

  Memory set to 953.674 MiB by Python driver.
  Threads set to 2 by Python driver.

Scratch directory: /home/chase/temp/Psi4-mso4/

*** tstart() called on DESKTOP-26BCFJT
*** at Thu Nov  3 12:59:40 2022

   => Loading Basis Set <=

    Name: 6-311+G*
    Role: ORBITAL
    Keyword: BASIS
    atoms 1      entry S          line   430 file /home/chase/psi4conda/share/psi4/basis/6-311pgs.gbs 
    atoms 2-4, 6 entry O          line   172 file /home/chase/psi4conda/share/psi4/basis/6-311pgs.gbs 
    atoms 5      entry C          line   130 file /home/chase/psi4conda/share/psi4/basis/6-311pgs.gbs 
    atoms 7-9    entry H          line    47 file /home/chase/psi4conda/share/psi4/basis/6-311pgs.gbs 

   => WB97X-D: Empirical Dispersion <=

    Chai and Head-Gordon Dispersion Correction
    Chai, J.-D.; Head-Gordon, M. (2010), J. Chem. Phys., 132: 6615-6620

        s6 =       1.000000


         ---------------------------------------------------------
                                   SCF
               by Justin Turney, Rob Parrish, Andy Simmonett
                          and Daniel G. A. Smith
                              RKS Reference
                        2 Threads,    953 MiB Core
         ---------------------------------------------------------

  ==> Geometry <==

    Molecular point group: c1
    Full point group: C1

    Geometry (in Angstrom), charge = -1, multiplicity = 1:

       Center              X                  Y                   Z               Mass       
    ------------   -----------------  -----------------  -----------------  -----------------
         S           -0.411361326104     0.089735504015     0.037199343672    31.972071174400
         O           -0.465551326104     0.472025504015    -1.363971656328    15.994914619570
         O           -0.702960326104    -1.316518495985     0.260166343672    15.994914619570
         O            1.205012673896     0.259318504015     0.459895343672    15.994914619570
         C            1.950180673896    -0.585228495985    -0.349763656328    12.000000000000
         O           -1.083220326104     0.998352504015     0.939218343672    15.994914619570
         H            1.277888673896    -1.101444495985    -1.037540656328     1.007825032230
         H            2.683877673896    -0.006870495985    -0.926351656328     1.007825032230
         H            2.479918673896    -1.327658495985     0.261604343672     1.007825032230

  Running in c1 symmetry.

  Rotational constants: A =      0.16981  B =      0.09550  C =      0.09454 [cm^-1]
  Rotational constants: A =   5090.66230  B =   2863.08356  C =   2834.27385 [MHz]
  Nuclear repulsion =  363.075035173719527

  Charge       = -1
  Multiplicity = 1
  Electrons    = 58
  Nalpha       = 29
  Nbeta        = 29

  ==> Algorithm <==

  SCF Algorithm Type is DF.
  DIIS enabled.
  MOM disabled.
  Fractional occupation disabled.
  Guess Type is SAD.
  Energy threshold   = 1.00e-06
  Density threshold  = 1.00e-06
  Integral threshold = 1.00e-12

  ==> Primary Basis <==

  Basis Set: 6-311+G*
    Blend: 6-311+G*
    Number of shells: 73
    Number of basis functions: 149
    Number of Cartesian functions: 155
    Spherical Harmonics?: true
    Max angular momentum: 2

  ==> DFT Potential <==

   => LibXC <=

    Version 5.1.5
    S. Lehtola, C. Steigemann, M. J. Oliveira, and M. A. Marques, SoftwareX 7, 1 (2018) (10.1016/j.softx.2017.11.002)

   => Composite Functional: WB97X-D <= 

    wB97X-D Hyb-GGA Exchange-Correlation Functional

    J.-D. Chai and M. Head-Gordon, Phys. Chem. Chem. Phys. 10, 6615 (2008) (10.1039/B810189B)

    Deriv               =              1
    GGA                 =           TRUE
    Meta                =          FALSE

    Exchange Hybrid     =           TRUE
    MP2 Hybrid          =          FALSE

   => Exchange-Correlation Functionals <=

    1.0000   wB97X-D range-separated functional

   => Exact (HF) Exchange <=

    0.7780            HF,LR [omega = 0.2000]
    0.2220               HF 

   => LibXC Density Thresholds  <==

    XC_HYB_GGA_XC_WB97X_D:  1.00E-14 

   => Molecular Quadrature <=

    Radial Scheme          =       TREUTLER
    Pruning Scheme         =           NONE
    Nuclear Scheme         =       TREUTLER

    Blocking Scheme        =         OCTREE
    BS radius alpha        =              1
    Pruning alpha          =              1
    Radial Points          =             75
    Spherical Points       =            302
    Total Points           =         194210
    Total Blocks           =           1488
    Max Points             =            256
    Max Functions          =            148
    Weights Tolerance      =       1.00E-15

   => Loading Basis Set <=

    Name: (6-311+G* AUX)
    Role: JKFIT
    Keyword: DF_BASIS_SCF
    atoms 1      entry S          line   768 file /home/chase/psi4conda/share/psi4/basis/heavy-aug-cc-pvtz-jkfit.gbs 
    atoms 2-4, 6 entry O          line   324 file /home/chase/psi4conda/share/psi4/basis/heavy-aug-cc-pvtz-jkfit.gbs 
    atoms 5      entry C          line   200 file /home/chase/psi4conda/share/psi4/basis/heavy-aug-cc-pvtz-jkfit.gbs 
    atoms 7-9    entry H          line   116 file /home/chase/psi4conda/share/psi4/basis/heavy-aug-cc-pvtz-jkfit.gbs 

  ==> Integral Setup <==

  DFHelper Memory: AOs need 0.374 GiB; user supplied 0.374 GiB. Using in-core AOs.

  ==> MemDFJK: Density-Fitted J/K Matrices <==

    J tasked:                   Yes
    K tasked:                   Yes
    wK tasked:                  Yes
    Omega:                2.000E-01
    OpenMP threads:               2
    Memory [MiB]:               382
    Algorithm:                 Core
    Schwarz Cutoff:           1E-12
    Mask sparsity (%):       2.7206
    Fitting Condition:        1E-10

   => Auxiliary Basis Set <=

  Basis Set: (6-311+G* AUX)
    Blend: HEAVY-AUG-CC-PVTZ-JKFIT
    Number of shells: 222
    Number of basis functions: 756
    Number of Cartesian functions: 940
    Spherical Harmonics?: true
    Max angular momentum: 4

  Cached 50.0% of DFT collocation blocks in 0.303 [GiB].

  Minimum eigenvalue in the overlap matrix is 3.2117219024E-04.
  Reciprocal condition number of the overlap matrix is 3.2835366268E-05.
    Using symmetric orthogonalization.

  ==> Pre-Iterations <==

  SCF Guess: Superposition of Atomic Densities via on-the-fly atomic UHF (no occupation information).

   -------------------------
    Irrep   Nso     Nmo    
   -------------------------
     A        149     149 
   -------------------------
    Total     149     149
   -------------------------

  ==> Iterations <==

                           Total Energy        Delta E     RMS |[F,P]|

   @DF-RKS iter SAD:  -738.95443973611066   -7.38954e+02   0.00000e+00 
   @DF-RKS iter   1:  -738.52282006976452    4.31620e-01   7.83830e-03 ADIIS/DIIS
   @DF-RKS iter   2:  -738.44965220888366    7.31679e-02   8.82162e-03 ADIIS/DIIS
   @DF-RKS iter   3:  -738.99806477438256   -5.48413e-01   7.89814e-04 ADIIS/DIIS
   @DF-RKS iter   4:  -739.00193418348726   -3.86941e-03   2.72978e-04 ADIIS/DIIS
   @DF-RKS iter   5:  -739.00246394714225   -5.29764e-04   1.13035e-04 ADIIS/DIIS
   @DF-RKS iter   6:  -739.00255676646759   -9.28193e-05   2.40020e-05 DIIS
   @DF-RKS iter   7:  -739.00256213988393   -5.37342e-06   4.46283e-06 DIIS
   @DF-RKS iter   8:  -739.00256238496172   -2.45078e-07   1.53757e-06 DIIS
   @DF-RKS iter   9:  -739.00256241253214   -2.75704e-08   4.21160e-07 DIIS
  Energy and wave function converged.


  ==> Post-Iterations <==

   Electrons on quadrature grid:
      Ntotal   =   57.9999918517 ; deviation = -8.148e-06 

    Orbital Energies [Eh]
    ---------------------

    Doubly Occupied:                                                      

       1A    -89.062496     2A    -19.110392     3A    -19.044243  
       4A    -19.044211     5A    -19.043807     6A    -10.181963  
       7A     -8.074723     8A     -6.024015     9A     -6.021769  
      10A     -6.021595    11A     -1.086890    12A     -0.973635  
      13A     -0.920194    14A     -0.917737    15A     -0.648191  
      16A     -0.520554    17A     -0.440539    18A     -0.414651  
      19A     -0.408232    20A     -0.372493    21A     -0.353084  
      22A     -0.313434    23A     -0.257847    24A     -0.256520  
      25A     -0.246690    26A     -0.237822    27A     -0.208358  
      28A     -0.189858    29A     -0.167348  

    Virtual:                                                              

      30A      0.181792    31A      0.214442    32A      0.224796  
      33A      0.228297    34A      0.255997    35A      0.256956  
      36A      0.258819    37A      0.303298    38A      0.320069  
      39A      0.361505    40A      0.369952    41A      0.377005  
      42A      0.393940    43A      0.394883    44A      0.407975  
      45A      0.426243    46A      0.443635    47A      0.445696  
      48A      0.463180    49A      0.478363    50A      0.486015  
      51A      0.494608    52A      0.497727    53A      0.504571  
      54A      0.519281    55A      0.521406    56A      0.525812  
      57A      0.533578    58A      0.549742    59A      0.562997  
      60A      0.585885    61A      0.621255    62A      0.633514  
      63A      0.646148    64A      0.676551    65A      0.721459  
      66A      0.750454    67A      0.789884    68A      0.840931  
      69A      0.884809    70A      0.903959    71A      0.959678  
      72A      0.963345    73A      1.078303    74A      1.177970  
      75A      1.230079    76A      1.236741    77A      1.283364  
      78A      1.302782    79A      1.346500    80A      1.360767  
      81A      1.378668    82A      1.384314    83A      1.405652  
      84A      1.406837    85A      1.412666    86A      1.447500  
      87A      1.478260    88A      1.491183    89A      1.505048  
      90A      1.574274    91A      1.608648    92A      1.800562  
      93A      1.816778    94A      1.834331    95A      1.836807  
      96A      1.932881    97A      2.007164    98A      2.057329  
      99A      2.084800   100A      2.088086   101A      2.170435  
     102A      2.648687   103A      2.683760   104A      2.729736  
     105A      3.031071   106A      3.047396   107A      3.092721  
     108A      3.094780   109A      3.100262   110A      3.104849  
     111A      3.121065   112A      3.131222   113A      3.135947  
     114A      3.160465   115A      3.264170   116A      3.278809  
     117A      3.298985   118A      3.352593   119A      3.448779  
     120A      3.449909   121A      3.469988   122A      3.474297  
     123A      3.566091   124A      3.744889   125A      3.892098  
     126A      3.893622   127A      4.164430   128A      5.238429  
     129A      5.252175   130A      5.299762   131A      5.310388  
     132A      5.320809   133A      5.324165   134A      5.329963  
     135A      5.353515   136A      5.436396   137A      5.593144  
     138A      5.621565   139A      5.700163   140A      8.448663  
     141A     17.609840   142A     17.738485   143A     17.777204  
     144A     23.818750   145A     50.173644   146A     50.194801  
     147A     50.196575   148A     50.279342   149A    189.614964  

    Final Occupation by Irrep:
              A 
    DOCC [    29 ]

  @DF-RKS Final Energy:  -739.00256241253214

   => Energetics <=

    Nuclear Repulsion Energy =            363.0750351737195274
    One-Electron Energy =               -1750.4038310758364787
    Two-Electron Energy =                 696.0386335369460085
    DFT Exchange-Correlation Energy =     -47.7101903149347777
    Empirical Dispersion Energy =          -0.0022097324263112
    VV10 Nonlocal Energy =                  0.0000000000000000
    Total Energy =                       -739.0025624125321428

Computation Completed


Properties will be evaluated at   0.000000,   0.000000,   0.000000 [a0]

Properties computed using the SCF density matrix


 Multipole Moments:

 ------------------------------------------------------------------------------------
     Multipole            Electronic (a.u.)      Nuclear  (a.u.)        Total (a.u.)
 ------------------------------------------------------------------------------------

 L = 1.  Multiply by 2.5417464519 to convert [e a0] to [Debye]
 Dipole X            :         -4.6530177            6.0229982            1.3699806
 Dipole Y            :          1.8646607           -2.2792975           -0.4146368
 Dipole Z            :          1.3429105           -1.5934424           -0.2505319
 Magnitude           :                                                    1.4531128

 ------------------------------------------------------------------------------------

*** tstop() called on DESKTOP-26BCFJT at Thu Nov  3 12:59:55 2022
Module time:
	user time   =      27.57 seconds =       0.46 minutes
	system time =       0.73 seconds =       0.01 minutes
	total time  =         15 seconds =       0.25 minutes
Total time:
	user time   =      27.57 seconds =       0.46 minutes
	system time =       0.73 seconds =       0.01 minutes
	total time  =         15 seconds =       0.25 minutes


Properties will be evaluated at   0.000000,   0.000000,   0.000000 [a0]
OEProp: No title given, name of density matrix used for the following properties is 'SCF density'


  Wiberg Bond Indices using Orthogonal Lowdin Orbitals:

  Irrep: 1 Size: 9 x 9

                 1                   2                   3                   4                   5

    1     0.00000000000000     1.76381083667859     1.76375371461129     0.95115253005110     0.10680468565507
    2     1.76381083667859     0.00000000000000     0.19643926588733     0.15532415497157     0.07364871530880
    3     1.76375371461129     0.19643926588733     0.00000000000000     0.15529352502122     0.07413332156379
    4     0.95115253005110     0.15532415497157     0.15529352502122     0.00000000000000     1.37253774486011
    5     0.10680468565507     0.07364871530880     0.07413332156379     1.37253774486011     0.00000000000000
    6     1.80866929936677     0.18846743963478     0.18840448038903     0.16084616547711     0.02925210799570
    7     0.03641044405705     0.01826646851827     0.01790944014874     0.04606516472249     0.86924717486821
    8     0.01027840666955     0.00233140630027     0.00198578302133     0.06221919172707     0.90846186239454
    9     0.01019559523806     0.00190302514915     0.00254538006692     0.06232996627035     0.90841767793017

                 6                   7                   8                   9

    1     1.80866929936677     0.03641044405705     0.01027840666955     0.01019559523806
    2     0.18846743963478     0.01826646851827     0.00233140630027     0.00190302514915
    3     0.18840448038903     0.01790944014874     0.00198578302133     0.00254538006692
    4     0.16084616547711     0.04606516472249     0.06221919172707     0.06232996627035
    5     0.02925210799570     0.86924717486821     0.90846186239454     0.90841767793017
    6     0.00000000000000     0.00220604479804     0.00153498105283     0.00147292499727
    7     0.00220604479804     0.00000000000000     0.00898121023327     0.00887977485299
    8     0.00153498105283     0.00898121023327     0.00000000000000     0.00903225961531
    9     0.00147292499727     0.00887977485299     0.00903225961531     0.00000000000000



  Atomic Valences: 

 #  #
 Irrep: 1
      1:    6.451075512327482
      2:    2.400191312448762
      3:    2.400464910709662
      4:    2.965768443101028
      5:    4.342503290576401
      6:    2.380853443711521
      7:    1.007965722199057
      8:    1.004825101014175
      9:    1.004776604120221


    Psi4 stopped on: Thursday, 03 November 2022 12:59PM
    Psi4 wall time for execution: 0:00:14.64

*** Psi4 exiting successfully. Buy a developer a beer!
