9
 energy: -23.459263400215 gnorm: 0.000446612995 xtb: 6.5.1 (b24c23e)
S           -0.36292954756455        0.01639975789733        0.15368064085934
O           -0.80280920133769       -0.40098173696670       -1.16709821629659
O           -0.20725400740161       -1.08968443369289        1.08334729993330
O            1.19642274606074        0.59319010840390       -0.08267206070734
C            1.96346343372291       -0.44299679892993       -0.59447481436834
O           -1.05977311212673        1.16459695673145        0.68921584975948
H            2.38027616678673       -0.15914608223039       -1.56967891142124
H            2.78661159305463       -0.68146088771246        0.09178085079919
H            1.33167593880558       -1.32470888350031       -0.71703563855779
