2022-11-03:13:00:14,171 INFO     [psi4.driver.task_planner:266] PLANNING Atomic:  keywords={'FREEZE_CORE': 'TRUE', 'function_kwargs': {}}
2022-11-03:13:00:14,177 INFO     [psi4.driver.driver:499] Compute energy(): method=wb97x-d, basis=6-311+g*, molecule=default, nre=361.2716062783763
2022-11-03:13:00:30,262 INFO     [psi4.driver.driver:502] Return energy(): -739.003293419201
io,
    A. Alenaizan, A. M. James, S. Lehtola, J. P. Misiewicz, M. Scheurer,
    R. A. Shaw, J. B. Schriber, Y. Xie, Z. L. Glick, D. A. Sirianni,
    J. S. O'Brien, J. M. Waldrop, A. Kumar, E. G. Hohenstein,
    B. P. Pritchard, B. R. Brooks, H. F. Schaefer III, A. Yu. Sokolov,
    K. Patkowski, A. E. DePrince III, U. Bozkaya, R. A. King,
    F. A. Evangelista, J. M. Turney, T. D. Crawford, C. D. Sherrill,
    J. Chem. Phys. 152(18) 184108 (2020). https://doi.org/10.1063/5.0006002

                            Additional Code Authors
    E. T. Seidl, C. L. Janssen, E. F. Valeev, M. L. Leininger,
    J. F. Gonthier, R. M. Richard, H. R. McAlexander, M. Saitow, X. Wang,
    P. Verma, M. H. Lechner, and A. Jiang

             Previous Authors, Complete List of Code Contributors,
                       and Citations for Specific Modules
    https://github.com/psi4/psi4/blob/master/codemeta.json
    https://github.com/psi4/psi4/graphs/contributors
    http://psicode.org/psi4manual/master/introduction.html#citing-psifour

    -----------------------------------------------------------------------


    Psi4 started on: Thursday, 03 November 2022 01:00PM

    Process ID: 9317
    Host:       DESKTOP-26BCFJT
    PSIDATADIR: /home/chase/psi4conda/share/psi4
    Memory:     500.0 MiB
    Threads:    1
    
  ==> Input File <==

--------------------------------------------------------------------------
molecule { 
-1 1
 S   -0.398841   -0.049392    0.178125
 O   -0.505670   -0.579052   -1.171468
 O   -0.918471   -0.933896    1.202940
 O    1.255627    0.016647    0.504079
 C    2.001807   -0.435499   -0.567568
 O   -0.832883    1.327981    0.308581
 H    1.827990    0.182890   -1.455346
 H    3.061599   -0.387998   -0.288898
 H    1.734527   -1.466473   -0.823379
}
memory 1GB
set_num_threads(2)
psi4_io.set_default_path("/home/chase/temp/Psi4-mso4")
set freeze_core True
E, wfn = energy('wb97x-d/6-311+G*',return_wfn=True)
oeprop(wfn,"WIBERG_LOWDIN_INDICES")
clean()
--------------------------------------------------------------------------

  Memory set to 953.674 MiB by Python driver.
  Threads set to 2 by Python driver.

Scratch directory: /home/chase/temp/Psi4-mso4/

*** tstart() called on DESKTOP-26BCFJT
*** at Thu Nov  3 13:00:14 2022

   => Loading Basis Set <=

    Name: 6-311+G*
    Role: ORBITAL
    Keyword: BASIS
    atoms 1      entry S          line   430 file /home/chase/psi4conda/share/psi4/basis/6-311pgs.gbs 
    atoms 2-4, 6 entry O          line   172 file /home/chase/psi4conda/share/psi4/basis/6-311pgs.gbs 
    atoms 5      entry C          line   130 file /home/chase/psi4conda/share/psi4/basis/6-311pgs.gbs 
    atoms 7-9    entry H          line    47 file /home/chase/psi4conda/share/psi4/basis/6-311pgs.gbs 

   => WB97X-D: Empirical Dispersion <=

    Chai and Head-Gordon Dispersion Correction
    Chai, J.-D.; Head-Gordon, M. (2010), J. Chem. Phys., 132: 6615-6620

        s6 =       1.000000


         ---------------------------------------------------------
                                   SCF
               by Justin Turney, Rob Parrish, Andy Simmonett
                          and Daniel G. A. Smith
                              RKS Reference
                        2 Threads,    953 MiB Core
         ---------------------------------------------------------

  ==> Geometry <==

    Molecular point group: c1
    Full point group: C1

    Geometry (in Angstrom), charge = -1, multiplicity = 1:

       Center              X                  Y                   Z               Mass       
    ------------   -----------------  -----------------  -----------------  -----------------
         S           -0.416219670947     0.051369947398     0.089832180582    31.972071174400
         O           -0.523048670947    -0.478290052602    -1.259760819418    15.994914619570
         O           -0.935849670947    -0.833134052602     1.114647180582    15.994914619570
         O            1.238248329053     0.117408947398     0.415786180582    15.994914619570
         C            1.984428329053    -0.334737052602    -0.655860819418    12.000000000000
         O           -0.850261670947     1.428742947398     0.220288180582    15.994914619570
         H            1.810611329053     0.283651947398    -1.543638819418     1.007825032230
         H            3.044220329053    -0.287236052602    -0.377190819418     1.007825032230
         H            1.717148329053    -1.365711052602    -0.911671819418     1.007825032230

  Running in c1 symmetry.

  Rotational constants: A =      0.16984  B =      0.09299  C =      0.09230 [cm^-1]
  Rotational constants: A =   5091.67239  B =   2787.84787  C =   2767.08126 [MHz]
  Nuclear repulsion =  361.271606278376282

  Charge       = -1
  Multiplicity = 1
  Electrons    = 58
  Nalpha       = 29
  Nbeta        = 29

  ==> Algorithm <==

  SCF Algorithm Type is DF.
  DIIS enabled.
  MOM disabled.
  Fractional occupation disabled.
  Guess Type is SAD.
  Energy threshold   = 1.00e-06
  Density threshold  = 1.00e-06
  Integral threshold = 1.00e-12

  ==> Primary Basis <==

  Basis Set: 6-311+G*
    Blend: 6-311+G*
    Number of shells: 73
    Number of basis functions: 149
    Number of Cartesian functions: 155
    Spherical Harmonics?: true
    Max angular momentum: 2

  ==> DFT Potential <==

   => LibXC <=

    Version 5.1.5
    S. Lehtola, C. Steigemann, M. J. Oliveira, and M. A. Marques, SoftwareX 7, 1 (2018) (10.1016/j.softx.2017.11.002)

   => Composite Functional: WB97X-D <= 

    wB97X-D Hyb-GGA Exchange-Correlation Functional

    J.-D. Chai and M. Head-Gordon, Phys. Chem. Chem. Phys. 10, 6615 (2008) (10.1039/B810189B)

    Deriv               =              1
    GGA                 =           TRUE
    Meta                =          FALSE

    Exchange Hybrid     =           TRUE
    MP2 Hybrid          =          FALSE

   => Exchange-Correlation Functionals <=

    1.0000   wB97X-D range-separated functional

   => Exact (HF) Exchange <=

    0.7780            HF,LR [omega = 0.2000]
    0.2220               HF 

   => LibXC Density Thresholds  <==

    XC_HYB_GGA_XC_WB97X_D:  1.00E-14 

   => Molecular Quadrature <=

    Radial Scheme          =       TREUTLER
    Pruning Scheme         =           NONE
    Nuclear Scheme         =       TREUTLER

    Blocking Scheme        =         OCTREE
    BS radius alpha        =              1
    Pruning alpha          =              1
    Radial Points          =             75
    Spherical Points       =            302
    Total Points           =         194339
    Total Blocks           =           1489
    Max Points             =            256
    Max Functions          =            147
    Weights Tolerance      =       1.00E-15

   => Loading Basis Set <=

    Name: (6-311+G* AUX)
    Role: JKFIT
    Keyword: DF_BASIS_SCF
    atoms 1      entry S          line   768 file /home/chase/psi4conda/share/psi4/basis/heavy-aug-cc-pvtz-jkfit.gbs 
    atoms 2-4, 6 entry O          line   324 file /home/chase/psi4conda/share/psi4/basis/heavy-aug-cc-pvtz-jkfit.gbs 
    atoms 5      entry C          line   200 file /home/chase/psi4conda/share/psi4/basis/heavy-aug-cc-pvtz-jkfit.gbs 
    atoms 7-9    entry H          line   116 file /home/chase/psi4conda/share/psi4/basis/heavy-aug-cc-pvtz-jkfit.gbs 

  ==> Integral Setup <==

  DFHelper Memory: AOs need 0.373 GiB; user supplied 0.373 GiB. Using in-core AOs.

  ==> MemDFJK: Density-Fitted J/K Matrices <==

    J tasked:                   Yes
    K tasked:                   Yes
    wK tasked:                  Yes
    Omega:                2.000E-01
    OpenMP threads:               2
    Memory [MiB]:               382
    Algorithm:                 Core
    Schwarz Cutoff:           1E-12
    Mask sparsity (%):       2.8557
    Fitting Condition:        1E-10

   => Auxiliary Basis Set <=

  Basis Set: (6-311+G* AUX)
    Blend: HEAVY-AUG-CC-PVTZ-JKFIT
    Number of shells: 222
    Number of basis functions: 756
    Number of Cartesian functions: 940
    Spherical Harmonics?: true
    Max angular momentum: 4

  Cached 50.0% of DFT collocation blocks in 0.309 [GiB].

  Minimum eigenvalue in the overlap matrix is 4.8165627695E-04.
  Reciprocal condition number of the overlap matrix is 5.0162972459E-05.
    Using symmetric orthogonalization.

  ==> Pre-Iterations <==

  SCF Guess: Superposition of Atomic Densities via on-the-fly atomic UHF (no occupation information).

   -------------------------
    Irrep   Nso     Nmo    
   -------------------------
     A        149     149 
   -------------------------
    Total     149     149
   -------------------------

  ==> Iterations <==

                           Total Energy        Delta E     RMS |[F,P]|

   @DF-RKS iter SAD:  -738.90933928650463   -7.38909e+02   0.00000e+00 
   @DF-RKS iter   1:  -738.51861578076318    3.90724e-01   7.86783e-03 ADIIS/DIIS
   @DF-RKS iter   2:  -738.44080496780282    7.78108e-02   8.88681e-03 ADIIS/DIIS
   @DF-RKS iter   3:  -738.99866875998759   -5.57864e-01   8.00898e-04 ADIIS/DIIS
   @DF-RKS iter   4:  -739.00261446043396   -3.94570e-03   2.85287e-04 ADIIS/DIIS
   @DF-RKS iter   5:  -739.00319206429799   -5.77604e-04   1.14524e-04 ADIIS/DIIS
   @DF-RKS iter   6:  -739.00328778203993   -9.57177e-05   2.38149e-05 DIIS
   @DF-RKS iter   7:  -739.00329314471060   -5.36267e-06   4.58373e-06 DIIS
   @DF-RKS iter   8:  -739.00329339009545   -2.45385e-07   1.72971e-06 DIIS
   @DF-RKS iter   9:  -739.00329341920099   -2.91055e-08   6.60776e-07 DIIS
  Energy and wave function converged.


  ==> Post-Iterations <==

   Electrons on quadrature grid:
      Ntotal   =   58.0000013977 ; deviation = 1.398e-06 

    Orbital Energies [Eh]
    ---------------------

    Doubly Occupied:                                                      

       1A    -89.061529     2A    -19.109158     3A    -19.047555  
       4A    -19.040768     5A    -19.040745     6A    -10.183991  
       7A     -8.073550     8A     -6.022907     9A     -6.020685  
      10A     -6.020322    11A     -1.083545    12A     -0.972975  
      13A     -0.919987    14A     -0.914473    15A     -0.650295  
      16A     -0.516837    17A     -0.441587    18A     -0.411612  
      19A     -0.408230    20A     -0.364973    21A     -0.361854  
      22A     -0.310191    23A     -0.263564    24A     -0.253542  
      25A     -0.239890    26A     -0.239255    27A     -0.209289  
      28A     -0.184765    29A     -0.164964  

    Virtual:                                                              

      30A      0.178274    31A      0.215813    32A      0.221530  
      33A      0.226249    34A      0.255204    35A      0.256155  
      36A      0.260238    37A      0.297099    38A      0.333075  
      39A      0.355989    40A      0.362499    41A      0.383882  
      42A      0.386942    43A      0.397950    44A      0.400103  
      45A      0.416199    46A      0.446604    47A      0.447372  
      48A      0.457584    49A      0.472766    50A      0.488662  
      51A      0.491418    52A      0.494143    53A      0.505219  
      54A      0.518577    55A      0.523477    56A      0.526737  
      57A      0.535587    58A      0.550534    59A      0.570935  
      60A      0.598434    61A      0.608102    62A      0.635292  
      63A      0.655193    64A      0.661755    65A      0.704669  
      66A      0.722990    67A      0.775897    68A      0.841330  
      69A      0.872087    70A      0.897033    71A      0.957236  
      72A      1.005001    73A      1.079442    74A      1.171872  
      75A      1.226194    76A      1.236198    77A      1.291676  
      78A      1.317191    79A      1.330929    80A      1.372543  
      81A      1.381435    82A      1.400458    83A      1.401780  
      84A      1.414176    85A      1.420682    86A      1.436992  
      87A      1.471332    88A      1.478593    89A      1.498924  
      90A      1.601338    91A      1.646741    92A      1.800610  
      93A      1.821764    94A      1.833733    95A      1.839444  
      96A      1.931647    97A      1.981806    98A      2.024735  
      99A      2.083726   100A      2.096079   101A      2.140583  
     102A      2.645512   103A      2.661143   104A      2.722446  
     105A      3.033089   106A      3.046163   107A      3.093456  
     108A      3.099688   109A      3.101611   110A      3.118129  
     111A      3.120265   112A      3.130522   113A      3.147309  
     114A      3.167900   115A      3.231297   116A      3.285051  
     117A      3.323741   118A      3.388343   119A      3.428576  
     120A      3.445745   121A      3.462277   122A      3.522957  
     123A      3.528474   124A      3.738082   125A      3.894027  
     126A      3.900887   127A      4.183107   128A      5.221561  
     129A      5.283285   130A      5.293009   131A      5.307454  
     132A      5.322327   133A      5.329568   134A      5.334181  
     135A      5.339019   136A      5.425625   137A      5.599412  
     138A      5.601303   139A      5.719731   140A      8.448425  
     141A     17.608802   142A     17.746480   143A     17.756397  
     144A     23.825418   145A     50.165724   146A     50.197052  
     147A     50.208985   148A     50.260321   149A    189.616280  

    Final Occupation by Irrep:
              A 
    DOCC [    29 ]

  @DF-RKS Final Energy:  -739.00329341920099

   => Energetics <=

    Nuclear Repulsion Energy =            361.2716062783762823
    One-Electron Energy =               -1746.8617629150630819
    Two-Electron Energy =                 694.2945129843212726
    DFT Exchange-Correlation Energy =     -47.7054299362348928
    Empirical Dispersion Energy =          -0.0022198306006564
    VV10 Nonlocal Energy =                  0.0000000000000000
    Total Energy =                       -739.0032934192009861

Computation Completed


Properties will be evaluated at   0.000000,   0.000000,   0.000000 [a0]

Properties computed using the SCF density matrix


 Multipole Moments:

 ------------------------------------------------------------------------------------
     Multipole            Electronic (a.u.)      Nuclear  (a.u.)        Total (a.u.)
 ------------------------------------------------------------------------------------

 L = 1.  Multiply by 2.5417464519 to convert [e a0] to [Debye]
 Dipole X            :         -4.7112366            6.1449013            1.4336647
 Dipole Y            :          1.0226183           -1.2811890           -0.2585707
 Dipole Z            :          2.1389305           -2.6506540           -0.5117236
 Magnitude           :                                                    1.5440578

 ------------------------------------------------------------------------------------

*** tstop() called on DESKTOP-26BCFJT at Thu Nov  3 13:00:30 2022
Module time:
	user time   =      30.69 seconds =       0.51 minutes
	system time =       0.62 seconds =       0.01 minutes
	total time  =         16 seconds =       0.27 minutes
Total time:
	user time   =      30.69 seconds =       0.51 minutes
	system time =       0.62 seconds =       0.01 minutes
	total time  =         16 seconds =       0.27 minutes


Properties will be evaluated at   0.000000,   0.000000,   0.000000 [a0]
OEProp: No title given, name of density matrix used for the following properties is 'SCF density'


  Wiberg Bond Indices using Orthogonal Lowdin Orbitals:

  Irrep: 1 Size: 9 x 9

                 1                   2                   3                   4                   5

    1     0.00000000000000     1.75581189755129     1.79592696284356     0.93635137517181     0.10153008875710
    2     1.75581189755129     0.00000000000000     0.19310774375433     0.14569734473766     0.10859851557662
    3     1.79592696284356     0.19310774375433     0.00000000000000     0.16269311810073     0.03003152635266
    4     0.93635137517181     0.14569734473766     0.16269311810073     0.00000000000000     1.38314607501137
    5     0.10153008875710     0.10859851557662     0.03003152635266     1.38314607501137     0.00000000000000
    6     1.79606276460953     0.19298788702576     0.19427854120660     0.16261421267602     0.03001756621442
    7     0.01844871720252     0.01636771551288     0.00110219587830     0.05750611885282     0.89368000096144
    8     0.01590582933576     0.00368317982758     0.00254314844363     0.05896716057815     0.90433771050448
    9     0.01922079821342     0.01754343490282     0.00162325853180     0.05676331134071     0.89246994344340

                 6                   7                   8                   9

    1     1.79606276460953     0.01844871720252     0.01590582933576     0.01922079821342
    2     0.19298788702576     0.01636771551288     0.00368317982758     0.01754343490282
    3     0.19427854120660     0.00110219587830     0.00254314844363     0.00162325853180
    4     0.16261421267602     0.05750611885282     0.05896716057815     0.05676331134071
    5     0.03001756621442     0.89368000096144     0.90433771050448     0.89246994344340
    6     0.00000000000000     0.00153852672681     0.00256475786878     0.00109075473077
    7     0.00153852672681     0.00000000000000     0.00953766799812     0.00687048440714
    8     0.00256475786878     0.00953766799812     0.00000000000000     0.00958822321105
    9     0.00109075473077     0.00687048440714     0.00958822321105     0.00000000000000



  Atomic Valences: 

 #  #
 Irrep: 1
      1:    6.439258433684996
      2:    2.433797718888948
      3:    2.381306495111617
      4:    2.963738716469269
      5:    4.343811426821485
      6:    2.381155011058677
      7:    1.005051427540031
      8:    1.007127677767545
      9:    1.005170208781112


    Psi4 stopped on: Thursday, 03 November 2022 01:00PM
    Psi4 wall time for execution: 0:00:16.17

*** Psi4 exiting successfully. Buy a developer a beer!
