2022-11-03:13:00:31,137 INFO     [psi4.driver.task_planner:266] PLANNING Atomic:  keywords={'FREEZE_CORE': 'TRUE', 'function_kwargs': {}}
2022-11-03:13:00:31,141 INFO     [psi4.driver.driver:499] Compute energy(): method=wb97x-d, basis=6-311+g*, molecule=default, nre=363.90494276552505
2022-11-03:13:00:47,410 INFO     [psi4.driver.driver:502] Return energy(): -739.0048282069856
,
    A. Alenaizan, A. M. James, S. Lehtola, J. P. Misiewicz, M. Scheurer,
    R. A. Shaw, J. B. Schriber, Y. Xie, Z. L. Glick, D. A. Sirianni,
    J. S. O'Brien, J. M. Waldrop, A. Kumar, E. G. Hohenstein,
    B. P. Pritchard, B. R. Brooks, H. F. Schaefer III, A. Yu. Sokolov,
    K. Patkowski, A. E. DePrince III, U. Bozkaya, R. A. King,
    F. A. Evangelista, J. M. Turney, T. D. Crawford, C. D. Sherrill,
    J. Chem. Phys. 152(18) 184108 (2020). https://doi.org/10.1063/5.0006002

                            Additional Code Authors
    E. T. Seidl, C. L. Janssen, E. F. Valeev, M. L. Leininger,
    J. F. Gonthier, R. M. Richard, H. R. McAlexander, M. Saitow, X. Wang,
    P. Verma, M. H. Lechner, and A. Jiang

             Previous Authors, Complete List of Code Contributors,
                       and Citations for Specific Modules
    https://github.com/psi4/psi4/blob/master/codemeta.json
    https://github.com/psi4/psi4/graphs/contributors
    http://psicode.org/psi4manual/master/introduction.html#citing-psifour

    -----------------------------------------------------------------------


    Psi4 started on: Thursday, 03 November 2022 01:00PM

    Process ID: 9326
    Host:       DESKTOP-26BCFJT
    PSIDATADIR: /home/chase/psi4conda/share/psi4
    Memory:     500.0 MiB
    Threads:    1
    
  ==> Input File <==

--------------------------------------------------------------------------
molecule { 
-1 1
 S   -0.364090   -0.201842    0.180236
 O   -0.673776   -1.151117   -0.875900
 O   -1.083315   -0.420323    1.415817
 O    1.226769   -0.537118    0.591935
 C    1.972520   -0.338685   -0.560554
 O   -0.339035    1.179988   -0.269239
 H    1.877788    0.703170   -0.886737
 H    3.019397   -0.576906   -0.348002
 H    1.589426   -0.981958   -1.360489
}
memory 1GB
set_num_threads(2)
psi4_io.set_default_path("/home/chase/temp/Psi4-mso4")
set freeze_core True
E, wfn = energy('wb97x-d/6-311+G*',return_wfn=True)
oeprop(wfn,"WIBERG_LOWDIN_INDICES")
clean()
--------------------------------------------------------------------------

  Memory set to 953.674 MiB by Python driver.
  Threads set to 2 by Python driver.

Scratch directory: /home/chase/temp/Psi4-mso4/

*** tstart() called on DESKTOP-26BCFJT
*** at Thu Nov  3 13:00:31 2022

   => Loading Basis Set <=

    Name: 6-311+G*
    Role: ORBITAL
    Keyword: BASIS
    atoms 1      entry S          line   430 file /home/chase/psi4conda/share/psi4/basis/6-311pgs.gbs 
    atoms 2-4, 6 entry O          line   172 file /home/chase/psi4conda/share/psi4/basis/6-311pgs.gbs 
    atoms 5      entry C          line   130 file /home/chase/psi4conda/share/psi4/basis/6-311pgs.gbs 
    atoms 7-9    entry H          line    47 file /home/chase/psi4conda/share/psi4/basis/6-311pgs.gbs 

   => WB97X-D: Empirical Dispersion <=

    Chai and Head-Gordon Dispersion Correction
    Chai, J.-D.; Head-Gordon, M. (2010), J. Chem. Phys., 132: 6615-6620

        s6 =       1.000000


         ---------------------------------------------------------
                                   SCF
               by Justin Turney, Rob Parrish, Andy Simmonett
                          and Daniel G. A. Smith
                              RKS Reference
                        2 Threads,    953 MiB Core
         ---------------------------------------------------------

  ==> Geometry <==

    Molecular point group: c1
    Full point group: C1

    Geometry (in Angstrom), charge = -1, multiplicity = 1:

       Center              X                  Y                   Z               Mass       
    ------------   -----------------  -----------------  -----------------  -----------------
         S           -0.406095838762     0.034537960286     0.088163579091    31.972071174400
         O           -0.715781838762    -0.914737039714    -0.967972420909    15.994914619570
         O           -1.125320838762    -0.183943039714     1.323744579091    15.994914619570
         O            1.184763161238    -0.300738039714     0.499862579091    15.994914619570
         C            1.930514161238    -0.102305039714    -0.652626420909    12.000000000000
         O           -0.381040838762     1.416367960286    -0.361311420909    15.994914619570
         H            1.835782161238     0.939549960286    -0.978809420909     1.007825032230
         H            2.977391161238    -0.340526039714    -0.440074420909     1.007825032230
         H            1.547420161238    -0.745578039714    -1.452561420909     1.007825032230

  Running in c1 symmetry.

  Rotational constants: A =      0.17007  B =      0.09652  C =      0.09577 [cm^-1]
  Rotational constants: A =   5098.64232  B =   2893.46760  C =   2871.23740 [MHz]
  Nuclear repulsion =  363.904942765525050

  Charge       = -1
  Multiplicity = 1
  Electrons    = 58
  Nalpha       = 29
  Nbeta        = 29

  ==> Algorithm <==

  SCF Algorithm Type is DF.
  DIIS enabled.
  MOM disabled.
  Fractional occupation disabled.
  Guess Type is SAD.
  Energy threshold   = 1.00e-06
  Density threshold  = 1.00e-06
  Integral threshold = 1.00e-12

  ==> Primary Basis <==

  Basis Set: 6-311+G*
    Blend: 6-311+G*
    Number of shells: 73
    Number of basis functions: 149
    Number of Cartesian functions: 155
    Spherical Harmonics?: true
    Max angular momentum: 2

  ==> DFT Potential <==

   => LibXC <=

    Version 5.1.5
    S. Lehtola, C. Steigemann, M. J. Oliveira, and M. A. Marques, SoftwareX 7, 1 (2018) (10.1016/j.softx.2017.11.002)

   => Composite Functional: WB97X-D <= 

    wB97X-D Hyb-GGA Exchange-Correlation Functional

    J.-D. Chai and M. Head-Gordon, Phys. Chem. Chem. Phys. 10, 6615 (2008) (10.1039/B810189B)

    Deriv               =              1
    GGA                 =           TRUE
    Meta                =          FALSE

    Exchange Hybrid     =           TRUE
    MP2 Hybrid          =          FALSE

   => Exchange-Correlation Functionals <=

    1.0000   wB97X-D range-separated functional

   => Exact (HF) Exchange <=

    0.7780            HF,LR [omega = 0.2000]
    0.2220               HF 

   => LibXC Density Thresholds  <==

    XC_HYB_GGA_XC_WB97X_D:  1.00E-14 

   => Molecular Quadrature <=

    Radial Scheme          =       TREUTLER
    Pruning Scheme         =           NONE
    Nuclear Scheme         =       TREUTLER

    Blocking Scheme        =         OCTREE
    BS radius alpha        =              1
    Pruning alpha          =              1
    Radial Points          =             75
    Spherical Points       =            302
    Total Points           =         194133
    Total Blocks           =           1498
    Max Points             =            256
    Max Functions          =            147
    Weights Tolerance      =       1.00E-15

   => Loading Basis Set <=

    Name: (6-311+G* AUX)
    Role: JKFIT
    Keyword: DF_BASIS_SCF
    atoms 1      entry S          line   768 file /home/chase/psi4conda/share/psi4/basis/heavy-aug-cc-pvtz-jkfit.gbs 
    atoms 2-4, 6 entry O          line   324 file /home/chase/psi4conda/share/psi4/basis/heavy-aug-cc-pvtz-jkfit.gbs 
    atoms 5      entry C          line   200 file /home/chase/psi4conda/share/psi4/basis/heavy-aug-cc-pvtz-jkfit.gbs 
    atoms 7-9    entry H          line   116 file /home/chase/psi4conda/share/psi4/basis/heavy-aug-cc-pvtz-jkfit.gbs 

  ==> Integral Setup <==

  DFHelper Memory: AOs need 0.374 GiB; user supplied 0.374 GiB. Using in-core AOs.

  ==> MemDFJK: Density-Fitted J/K Matrices <==

    J tasked:                   Yes
    K tasked:                   Yes
    wK tasked:                  Yes
    Omega:                2.000E-01
    OpenMP threads:               2
    Memory [MiB]:               383
    Algorithm:                 Core
    Schwarz Cutoff:           1E-12
    Mask sparsity (%):       2.5945
    Fitting Condition:        1E-10

   => Auxiliary Basis Set <=

  Basis Set: (6-311+G* AUX)
    Blend: HEAVY-AUG-CC-PVTZ-JKFIT
    Number of shells: 222
    Number of basis functions: 756
    Number of Cartesian functions: 940
    Spherical Harmonics?: true
    Max angular momentum: 4

  Cached 50.0% of DFT collocation blocks in 0.310 [GiB].

  Minimum eigenvalue in the overlap matrix is 3.4382146680E-04.
  Reciprocal condition number of the overlap matrix is 3.5033571864E-05.
    Using symmetric orthogonalization.

  ==> Pre-Iterations <==

  SCF Guess: Superposition of Atomic Densities via on-the-fly atomic UHF (no occupation information).

   -------------------------
    Irrep   Nso     Nmo    
   -------------------------
     A        149     149 
   -------------------------
    Total     149     149
   -------------------------

  ==> Iterations <==

                           Total Energy        Delta E     RMS |[F,P]|

   @DF-RKS iter SAD:  -738.96643000694769   -7.38966e+02   0.00000e+00 
   @DF-RKS iter   1:  -738.52832352726898    4.38106e-01   7.81541e-03 ADIIS/DIIS
   @DF-RKS iter   2:  -738.45752776427105    7.07958e-02   8.78178e-03 ADIIS/DIIS
   @DF-RKS iter   3:  -739.00023670460530   -5.42709e-01   7.95112e-04 ADIIS/DIIS
   @DF-RKS iter   4:  -739.00420463441810   -3.96793e-03   2.71632e-04 ADIIS/DIIS
   @DF-RKS iter   5:  -739.00473090856985   -5.26274e-04   1.12520e-04 ADIIS/DIIS
   @DF-RKS iter   6:  -739.00482228842361   -9.13799e-05   2.48168e-05 DIIS
   @DF-RKS iter   7:  -739.00482794697450   -5.65855e-06   4.44326e-06 DIIS
   @DF-RKS iter   8:  -739.00482818240221   -2.35428e-07   1.45691e-06 DIIS
   @DF-RKS iter   9:  -739.00482820698562   -2.45834e-08   3.37436e-07 DIIS
  Energy and wave function converged.


  ==> Post-Iterations <==

   Electrons on quadrature grid:
      Ntotal   =   57.9999952835 ; deviation = -4.717e-06 

    Orbital Energies [Eh]
    ---------------------

    Doubly Occupied:                                                      

       1A    -89.061724     2A    -19.112522     3A    -19.043585  
       4A    -19.043546     5A    -19.043070     6A    -10.178164  
       7A     -8.073930     8A     -6.023234     9A     -6.020967  
      10A     -6.020820    11A     -1.087152    12A     -0.974550  
      13A     -0.918967    14A     -0.917664    15A     -0.646276  
      16A     -0.518109    17A     -0.440964    18A     -0.411794  
      19A     -0.406801    20A     -0.373621    21A     -0.355234  
      22A     -0.316914    23A     -0.256318    24A     -0.253675  
      25A     -0.239938    26A     -0.236863    27A     -0.208390  
      28A     -0.195561    29A     -0.165872  

    Virtual:                                                              

      30A      0.180435    31A      0.217570    32A      0.223273  
      33A      0.229499    34A      0.256741    35A      0.259163  
      36A      0.260366    37A      0.300322    38A      0.337526  
      39A      0.348932    40A      0.360377    41A      0.374512  
      42A      0.384272    43A      0.414465    44A      0.419587  
      45A      0.422936    46A      0.443501    47A      0.446956  
      48A      0.467948    49A      0.476633    50A      0.487595  
      51A      0.496344    52A      0.501624    53A      0.503096  
      54A      0.516798    55A      0.519665    56A      0.523975  
      57A      0.532223    58A      0.550528    59A      0.567509  
      60A      0.609737    61A      0.612048    62A      0.633838  
      63A      0.647423    64A      0.683992    65A      0.696096  
      66A      0.728805    67A      0.785383    68A      0.861253  
      69A      0.861892    70A      0.911958    71A      0.954375  
      72A      0.998931    73A      1.082755    74A      1.206733  
      75A      1.227189    76A      1.245982    77A      1.266321  
      78A      1.293094    79A      1.334533    80A      1.339427  
      81A      1.374197    82A      1.393536    83A      1.401433  
      84A      1.413666    85A      1.416767    86A      1.438426  
      87A      1.475111    88A      1.485949    89A      1.532556  
      90A      1.596096    91A      1.629610    92A      1.776656  
      93A      1.801560    94A      1.841567    95A      1.844903  
      96A      1.897431    97A      1.981354    98A      2.057710  
      99A      2.084292   100A      2.085583   101A      2.172432  
     102A      2.669972   103A      2.672939   104A      2.737256  
     105A      3.033597   106A      3.039363   107A      3.093519  
     108A      3.095321   109A      3.102034   110A      3.111110  
     111A      3.124213   112A      3.127572   113A      3.155236  
     114A      3.171829   115A      3.223389   116A      3.288389  
     117A      3.319439   118A      3.342580   119A      3.449697  
     120A      3.457298   121A      3.458656   122A      3.511562  
     123A      3.538817   124A      3.743297   125A      3.890438  
     126A      3.893103   127A      4.174612   128A      5.232938  
     129A      5.259975   130A      5.294672   131A      5.295712  
     132A      5.318485   133A      5.325548   134A      5.337325  
     135A      5.337939   136A      5.440739   137A      5.592841  
     138A      5.621158   139A      5.698952   140A      8.455798  
     141A     17.609960   142A     17.740658   143A     17.778977  
     144A     23.845177   145A     50.167189   146A     50.197281  
     147A     50.200772   148A     50.260605   149A    189.625850  

    Final Occupation by Irrep:
              A 
    DOCC [    29 ]

  @DF-RKS Final Energy:  -739.00482820698562

   => Energetics <=

    Nuclear Repulsion Energy =            363.9049427655250497
    One-Electron Energy =               -1752.1010473147016455
    Two-Electron Energy =                 696.9058048767883520
    DFT Exchange-Correlation Energy =     -47.7123571891244751
    Empirical Dispersion Energy =          -0.0021713454729161
    VV10 Nonlocal Energy =                  0.0000000000000000
    Total Energy =                       -739.0048282069857351

Computation Completed


Properties will be evaluated at   0.000000,   0.000000,   0.000000 [a0]

Properties computed using the SCF density matrix


 Multipole Moments:

 ------------------------------------------------------------------------------------
     Multipole            Electronic (a.u.)      Nuclear  (a.u.)        Total (a.u.)
 ------------------------------------------------------------------------------------

 L = 1.  Multiply by 2.5417464519 to convert [e a0] to [Debye]
 Dipole X            :         -4.5494802            5.9471612            1.3976811
 Dipole Y            :          0.0534783           -0.1363972           -0.0829189
 Dipole Z            :          2.2408363           -2.6871905           -0.4463542
 Magnitude           :                                                    1.4695646

 ------------------------------------------------------------------------------------

*** tstop() called on DESKTOP-26BCFJT at Thu Nov  3 13:00:47 2022
Module time:
	user time   =      31.21 seconds =       0.52 minutes
	system time =       0.82 seconds =       0.01 minutes
	total time  =         16 seconds =       0.27 minutes
Total time:
	user time   =      31.21 seconds =       0.52 minutes
	system time =       0.82 seconds =       0.01 minutes
	total time  =         16 seconds =       0.27 minutes


Properties will be evaluated at   0.000000,   0.000000,   0.000000 [a0]
OEProp: No title given, name of density matrix used for the following properties is 'SCF density'


  Wiberg Bond Indices using Orthogonal Lowdin Orbitals:

  Irrep: 1 Size: 9 x 9

                 1                   2                   3                   4                   5

    1     0.00000000000000     1.76035340737837     1.80965472698695     0.95498062774046     0.11194555147724
    2     1.76035340737837     0.00000000000000     0.18863261236314     0.15433046522355     0.07910955987529
    3     1.80965472698695     0.18863261236314     0.00000000000000     0.15892434048443     0.02984031523684
    4     0.95498062774046     0.15433046522355     0.15892434048443     0.00000000000000     1.37498849015244
    5     0.11194555147724     0.07910955987529     0.02984031523684     1.37498849015244     0.00000000000000
    6     1.76076410658792     0.19547864539100     0.18861906851585     0.15462739602156     0.07907166516335
    7     0.02112694727124     0.00360659987380     0.00124863779380     0.05754447885948     0.88515333891125
    8     0.01517805711476     0.00196346818059     0.00279893346198     0.05904514698399     0.90566822540082
    9     0.02234688256223     0.02078014067373     0.00131322955019     0.05679587018269     0.88276747458739

                 6                   7                   8                   9

    1     1.76076410658792     0.02112694727124     0.01517805711476     0.02234688256223
    2     0.19547864539100     0.00360659987380     0.00196346818059     0.02078014067373
    3     0.18861906851585     0.00124863779380     0.00279893346198     0.00131322955019
    4     0.15462739602156     0.05754447885948     0.05904514698399     0.05679587018269
    5     0.07907166516335     0.88515333891125     0.90566822540082     0.88276747458739
    6     0.00000000000000     0.01945871001246     0.00216940328836     0.00419211465412
    7     0.01945871001246     0.00000000000000     0.00964669244094     0.00755890585991
    8     0.00216940328836     0.00964669244094     0.00000000000000     0.00973498005266
    9     0.00419211465412     0.00755890585991     0.00973498005266     0.00000000000000



  Atomic Valences: 

 #  #
 Irrep: 1
      1:    6.456350307119171
      2:    2.404254898959475
      3:    2.381031864393179
      4:    2.971236815648603
      5:    4.348544620804626
      6:    2.404381109634622
      7:    1.005344311022890
      8:    1.006204906924118
      9:    1.005489598122927


    Psi4 stopped on: Thursday, 03 November 2022 01:00PM
    Psi4 wall time for execution: 0:00:16.36

*** Psi4 exiting successfully. Buy a developer a beer!
