9
 energy: -23.460884962587 gnorm: 0.000570010042 xtb: 6.5.1 (b24c23e)
S           -0.35802863868169        0.05470617672763        0.06828264278371
O           -0.61967056207427        0.04837461268289       -1.36114651028259
O           -0.43560930728250       -1.26149255339994        0.67967257659768
O            1.25884665810759        0.48166015577118        0.19560473314816
C            1.96950903850376       -0.49336155507461       -0.48854000052208
O           -1.03940308556823        1.09958589220935        0.80024354028954
H            1.66299374726046       -0.50393973020146       -1.54063848608167
H            3.03850211773950       -0.27333555274759       -0.40675807501859
H            1.74854501199537       -1.47698943596746       -0.05965642091416
