9
 energy: -23.460885792923 gnorm: 0.000341109861 xtb: 6.5.1 (b24c23e)
S           -0.36409046463790       -0.20184207789557        0.18023583730958
O           -0.67377585235604       -1.15111720910650       -0.87589985772054
O           -1.08331517694457       -0.42032268366445        1.41581699407933
O            1.22676923016199       -0.53711839728436        0.59193546333421
C            1.97252029131691       -0.33868534739487       -0.56055350023388
O           -0.33903490189313        1.17998780815040       -0.26923881658310
H            1.87778810709685        0.70316988933573       -0.88673740994091
H            3.01939724572631       -0.57690626196360       -0.34800245879231
H            1.58942552152953       -0.98195772017679       -1.36048925145237
