2022-11-03:13:00:48,910 INFO     [psi4.driver.task_planner:266] PLANNING Atomic:  keywords={'FREEZE_CORE': 'TRUE', 'function_kwargs': {}}
2022-11-03:13:00:48,913 INFO     [psi4.driver.driver:499] Compute energy(): method=wb97x-d, basis=6-311+g*, molecule=default, nre=362.3701969060599
2022-11-03:13:01:06,467 INFO     [psi4.driver.driver:502] Return energy(): -739.0044320447782
o,
    A. Alenaizan, A. M. James, S. Lehtola, J. P. Misiewicz, M. Scheurer,
    R. A. Shaw, J. B. Schriber, Y. Xie, Z. L. Glick, D. A. Sirianni,
    J. S. O'Brien, J. M. Waldrop, A. Kumar, E. G. Hohenstein,
    B. P. Pritchard, B. R. Brooks, H. F. Schaefer III, A. Yu. Sokolov,
    K. Patkowski, A. E. DePrince III, U. Bozkaya, R. A. King,
    F. A. Evangelista, J. M. Turney, T. D. Crawford, C. D. Sherrill,
    J. Chem. Phys. 152(18) 184108 (2020). https://doi.org/10.1063/5.0006002

                            Additional Code Authors
    E. T. Seidl, C. L. Janssen, E. F. Valeev, M. L. Leininger,
    J. F. Gonthier, R. M. Richard, H. R. McAlexander, M. Saitow, X. Wang,
    P. Verma, M. H. Lechner, and A. Jiang

             Previous Authors, Complete List of Code Contributors,
                       and Citations for Specific Modules
    https://github.com/psi4/psi4/blob/master/codemeta.json
    https://github.com/psi4/psi4/graphs/contributors
    http://psicode.org/psi4manual/master/introduction.html#citing-psifour

    -----------------------------------------------------------------------


    Psi4 started on: Thursday, 03 November 2022 01:00PM

    Process ID: 9338
    Host:       DESKTOP-26BCFJT
    PSIDATADIR: /home/chase/psi4conda/share/psi4
    Memory:     500.0 MiB
    Threads:    1
    
  ==> Input File <==

--------------------------------------------------------------------------
molecule { 
-1 1
 S   -0.391437    0.089701   -0.004901
 O   -0.889292    0.344806   -1.344381
 O   -0.374519   -1.314800    0.368757
 O    1.223321    0.558078   -0.063752
 C    1.996826   -0.525993   -0.439238
 O   -0.947348    0.967565    1.003924
 H    1.700359   -0.876967   -1.436324
 H    3.046859   -0.212767   -0.459325
 H    1.860915   -1.354416    0.262304
}
memory 1GB
set_num_threads(2)
psi4_io.set_default_path("/home/chase/temp/Psi4-mso4")
set freeze_core True
E, wfn = energy('wb97x-d/6-311+G*',return_wfn=True)
oeprop(wfn,"WIBERG_LOWDIN_INDICES")
clean()
--------------------------------------------------------------------------

  Memory set to 953.674 MiB by Python driver.
  Threads set to 2 by Python driver.

Scratch directory: /home/chase/temp/Psi4-mso4/

*** tstart() called on DESKTOP-26BCFJT
*** at Thu Nov  3 13:00:48 2022

   => Loading Basis Set <=

    Name: 6-311+G*
    Role: ORBITAL
    Keyword: BASIS
    atoms 1      entry S          line   430 file /home/chase/psi4conda/share/psi4/basis/6-311pgs.gbs 
    atoms 2-4, 6 entry O          line   172 file /home/chase/psi4conda/share/psi4/basis/6-311pgs.gbs 
    atoms 5      entry C          line   130 file /home/chase/psi4conda/share/psi4/basis/6-311pgs.gbs 
    atoms 7-9    entry H          line    47 file /home/chase/psi4conda/share/psi4/basis/6-311pgs.gbs 

   => WB97X-D: Empirical Dispersion <=

    Chai and Head-Gordon Dispersion Correction
    Chai, J.-D.; Head-Gordon, M. (2010), J. Chem. Phys., 132: 6615-6620

        s6 =       1.000000


         ---------------------------------------------------------
                                   SCF
               by Justin Turney, Rob Parrish, Andy Simmonett
                          and Daniel G. A. Smith
                              RKS Reference
                        2 Threads,    953 MiB Core
         ---------------------------------------------------------

  ==> Geometry <==

    Molecular point group: c1
    Full point group: C1

    Geometry (in Angstrom), charge = -1, multiplicity = 1:

       Center              X                  Y                   Z               Mass       
    ------------   -----------------  -----------------  -----------------  -----------------
         S           -0.412219279849     0.062845509856     0.063949774625    31.972071174400
         O           -0.910074279849     0.317950509856    -1.275530225375    15.994914619570
         O           -0.395301279849    -1.341655490144     0.437607774625    15.994914619570
         O            1.202538720151     0.531222509856     0.005098774625    15.994914619570
         C            1.976043720151    -0.552848490144    -0.370387225375    12.000000000000
         O           -0.968130279849     0.940709509856     1.072774774625    15.994914619570
         H            1.679576720151    -0.903822490144    -1.367473225375     1.007825032230
         H            3.026076720151    -0.239622490144    -0.390474225375     1.007825032230
         H            1.840132720151    -1.381271490144     0.331154774625     1.007825032230

  Running in c1 symmetry.

  Rotational constants: A =      0.16950  B =      0.09457  C =      0.09377 [cm^-1]
  Rotational constants: A =   5081.44689  B =   2835.23126  C =   2811.24406 [MHz]
  Nuclear repulsion =  362.370196906059903

  Charge       = -1
  Multiplicity = 1
  Electrons    = 58
  Nalpha       = 29
  Nbeta        = 29

  ==> Algorithm <==

  SCF Algorithm Type is DF.
  DIIS enabled.
  MOM disabled.
  Fractional occupation disabled.
  Guess Type is SAD.
  Energy threshold   = 1.00e-06
  Density threshold  = 1.00e-06
  Integral threshold = 1.00e-12

  ==> Primary Basis <==

  Basis Set: 6-311+G*
    Blend: 6-311+G*
    Number of shells: 73
    Number of basis functions: 149
    Number of Cartesian functions: 155
    Spherical Harmonics?: true
    Max angular momentum: 2

  ==> DFT Potential <==

   => LibXC <=

    Version 5.1.5
    S. Lehtola, C. Steigemann, M. J. Oliveira, and M. A. Marques, SoftwareX 7, 1 (2018) (10.1016/j.softx.2017.11.002)

   => Composite Functional: WB97X-D <= 

    wB97X-D Hyb-GGA Exchange-Correlation Functional

    J.-D. Chai and M. Head-Gordon, Phys. Chem. Chem. Phys. 10, 6615 (2008) (10.1039/B810189B)

    Deriv               =              1
    GGA                 =           TRUE
    Meta                =          FALSE

    Exchange Hybrid     =           TRUE
    MP2 Hybrid          =          FALSE

   => Exchange-Correlation Functionals <=

    1.0000   wB97X-D range-separated functional

   => Exact (HF) Exchange <=

    0.7780            HF,LR [omega = 0.2000]
    0.2220               HF 

   => LibXC Density Thresholds  <==

    XC_HYB_GGA_XC_WB97X_D:  1.00E-14 

   => Molecular Quadrature <=

    Radial Scheme          =       TREUTLER
    Pruning Scheme         =           NONE
    Nuclear Scheme         =       TREUTLER

    Blocking Scheme        =         OCTREE
    BS radius alpha        =              1
    Pruning alpha          =              1
    Radial Points          =             75
    Spherical Points       =            302
    Total Points           =         194286
    Total Blocks           =           1496
    Max Points             =            256
    Max Functions          =            149
    Weights Tolerance      =       1.00E-15

   => Loading Basis Set <=

    Name: (6-311+G* AUX)
    Role: JKFIT
    Keyword: DF_BASIS_SCF
    atoms 1      entry S          line   768 file /home/chase/psi4conda/share/psi4/basis/heavy-aug-cc-pvtz-jkfit.gbs 
    atoms 2-4, 6 entry O          line   324 file /home/chase/psi4conda/share/psi4/basis/heavy-aug-cc-pvtz-jkfit.gbs 
    atoms 5      entry C          line   200 file /home/chase/psi4conda/share/psi4/basis/heavy-aug-cc-pvtz-jkfit.gbs 
    atoms 7-9    entry H          line   116 file /home/chase/psi4conda/share/psi4/basis/heavy-aug-cc-pvtz-jkfit.gbs 

  ==> Integral Setup <==

  DFHelper Memory: AOs need 0.374 GiB; user supplied 0.374 GiB. Using in-core AOs.

  ==> MemDFJK: Density-Fitted J/K Matrices <==

    J tasked:                   Yes
    K tasked:                   Yes
    wK tasked:                  Yes
    Omega:                2.000E-01
    OpenMP threads:               2
    Memory [MiB]:               383
    Algorithm:                 Core
    Schwarz Cutoff:           1E-12
    Mask sparsity (%):       2.5945
    Fitting Condition:        1E-10

   => Auxiliary Basis Set <=

  Basis Set: (6-311+G* AUX)
    Blend: HEAVY-AUG-CC-PVTZ-JKFIT
    Number of shells: 222
    Number of basis functions: 756
    Number of Cartesian functions: 940
    Spherical Harmonics?: true
    Max angular momentum: 4

  Cached 50.0% of DFT collocation blocks in 0.311 [GiB].

  Minimum eigenvalue in the overlap matrix is 4.7156362677E-04.
  Reciprocal condition number of the overlap matrix is 4.8688842558E-05.
    Using symmetric orthogonalization.

  ==> Pre-Iterations <==

  SCF Guess: Superposition of Atomic Densities via on-the-fly atomic UHF (no occupation information).

   -------------------------
    Irrep   Nso     Nmo    
   -------------------------
     A        149     149 
   -------------------------
    Total     149     149
   -------------------------

  ==> Iterations <==

                           Total Energy        Delta E     RMS |[F,P]|

   @DF-RKS iter SAD:  -738.93401205890109   -7.38934e+02   0.00000e+00 
   @DF-RKS iter   1:  -738.52306181427946    4.10950e-01   7.84531e-03 ADIIS/DIIS
   @DF-RKS iter   2:  -738.44765938734463    7.54024e-02   8.84737e-03 ADIIS/DIIS
   @DF-RKS iter   3:  -738.99978808827348   -5.52129e-01   8.00499e-04 ADIIS/DIIS
   @DF-RKS iter   4:  -739.00377467908334   -3.98659e-03   2.79992e-04 ADIIS/DIIS
   @DF-RKS iter   5:  -739.00433213156850   -5.57452e-04   1.13854e-04 ADIIS/DIIS
   @DF-RKS iter   6:  -739.00442624355287   -9.41120e-05   2.43411e-05 DIIS
   @DF-RKS iter   7:  -739.00443176927251   -5.52572e-06   4.65452e-06 DIIS
   @DF-RKS iter   8:  -739.00443201194844   -2.42676e-07   1.93400e-06 DIIS
   @DF-RKS iter   9:  -739.00443204477824   -3.28298e-08   8.09054e-07 DIIS
  Energy and wave function converged.


  ==> Post-Iterations <==

   Electrons on quadrature grid:
      Ntotal   =   58.0000384323 ; deviation = 3.843e-05 

    Orbital Energies [Eh]
    ---------------------

    Doubly Occupied:                                                      

       1A    -89.061553     2A    -19.111233     3A    -19.047942  
       4A    -19.041963     5A    -19.039881     6A    -10.181945  
       7A     -8.073641     8A     -6.022972     9A     -6.020748  
      10A     -6.020458    11A     -1.085227    12A     -0.974180  
      13A     -0.920624    14A     -0.914862    15A     -0.648864  
      16A     -0.517807    17A     -0.441754    18A     -0.412116  
      19A     -0.408089    20A     -0.370091    21A     -0.357879  
      22A     -0.313545    23A     -0.258700    24A     -0.253862  
      25A     -0.241089    26A     -0.239164    27A     -0.208957  
      28A     -0.188737    29A     -0.165818  

    Virtual:                                                              

      30A      0.179095    31A      0.216745    32A      0.221830  
      33A      0.227847    34A      0.256409    35A      0.257388  
      36A      0.260088    37A      0.299256    38A      0.336256  
      39A      0.350333    40A      0.359547    41A      0.380819  
      42A      0.382748    43A      0.405107    44A      0.413621  
      45A      0.418714    46A      0.441569    47A      0.447140  
      48A      0.463057    49A      0.478562    50A      0.486088  
      51A      0.494209    52A      0.496322    53A      0.501922  
      54A      0.516879    55A      0.523040    56A      0.527319  
      57A      0.539345    58A      0.547331    59A      0.565124  
      60A      0.602706    61A      0.610024    62A      0.636096  
      63A      0.654245    64A      0.668711    65A      0.704055  
      66A      0.724760    67A      0.774632    68A      0.845020  
      69A      0.874372    70A      0.899234    71A      0.954010  
      72A      1.000448    73A      1.081027    74A      1.182263  
      75A      1.234969    76A      1.251335    77A      1.279538  
      78A      1.302394    79A      1.322410    80A      1.369458  
      81A      1.381457    82A      1.391404    83A      1.397748  
      84A      1.406795    85A      1.416469    86A      1.442795  
      87A      1.454739    88A      1.478431    89A      1.519556  
      90A      1.605892    91A      1.642433    92A      1.795546  
      93A      1.800678    94A      1.824225    95A      1.843651  
      96A      1.921155    97A      1.994787    98A      2.014634  
      99A      2.083243   100A      2.091484   101A      2.153687  
     102A      2.659794   103A      2.666288   104A      2.724856  
     105A      3.033313   106A      3.043616   107A      3.091685  
     108A      3.098185   109A      3.103452   110A      3.118416  
     111A      3.120376   112A      3.127254   113A      3.150543  
     114A      3.164770   115A      3.235825   116A      3.286758  
     117A      3.317941   118A      3.363333   119A      3.442769  
     120A      3.448832   121A      3.453392   122A      3.511820  
     123A      3.541450   124A      3.741704   125A      3.890194  
     126A      3.897769   127A      4.173471   128A      5.227911  
     129A      5.269568   130A      5.300759   131A      5.303759  
     132A      5.321704   133A      5.327807   134A      5.331007  
     135A      5.335969   136A      5.434110   137A      5.598874  
     138A      5.613251   139A      5.709421   140A      8.450333  
     141A     17.611113   142A     17.745290   143A     17.764703  
     144A     23.830537   145A     50.165732   146A     50.197892  
     147A     50.199324   148A     50.258268   149A    189.619010  

    Final Occupation by Irrep:
              A 
    DOCC [    29 ]

  @DF-RKS Final Energy:  -739.00443204477824

   => Energetics <=

    Nuclear Repulsion Energy =            362.3701969060599026
    One-Electron Energy =               -1749.0384313953470610
    Two-Electron Energy =                 695.3739524012302127
    DFT Exchange-Correlation Energy =     -47.7079159606198857
    Empirical Dispersion Energy =          -0.0022339961013115
    VV10 Nonlocal Energy =                  0.0000000000000000
    Total Energy =                       -739.0044320447781274

Computation Completed


Properties will be evaluated at   0.000000,   0.000000,   0.000000 [a0]

Properties computed using the SCF density matrix


 Multipole Moments:

 ------------------------------------------------------------------------------------
     Multipole            Electronic (a.u.)      Nuclear  (a.u.)        Total (a.u.)
 ------------------------------------------------------------------------------------

 L = 1.  Multiply by 2.5417464519 to convert [e a0] to [Debye]
 Dipole X            :         -4.6766676            6.1204507            1.4437832
 Dipole Y            :          1.9233303           -2.3630325           -0.4397022
 Dipole Z            :          1.0938696           -1.3347341           -0.2408644
 Magnitude           :                                                    1.5283532

 ------------------------------------------------------------------------------------

*** tstop() called on DESKTOP-26BCFJT at Thu Nov  3 13:01:06 2022
Module time:
	user time   =      33.64 seconds =       0.56 minutes
	system time =       1.00 seconds =       0.02 minutes
	total time  =         18 seconds =       0.30 minutes
Total time:
	user time   =      33.64 seconds =       0.56 minutes
	system time =       1.00 seconds =       0.02 minutes
	total time  =         18 seconds =       0.30 minutes


Properties will be evaluated at   0.000000,   0.000000,   0.000000 [a0]
OEProp: No title given, name of density matrix used for the following properties is 'SCF density'


  Wiberg Bond Indices using Orthogonal Lowdin Orbitals:

  Irrep: 1 Size: 9 x 9

                 1                   2                   3                   4                   5

    1     0.00000000000000     1.78818655485445     1.75447867996126     0.94522170609140     0.10639981790513
    2     1.78818655485445     0.00000000000000     0.19366429046011     0.15911719281039     0.04291396519901
    3     1.75447867996126     0.19366429046011     0.00000000000000     0.14796473714840     0.10273416580927
    4     0.94522170609140     0.15911719281039     0.14796473714840     0.00000000000000     1.38123490508964
    5     0.10639981790513     0.04291396519901     0.10273416580927     1.38123490508964     0.00000000000000
    6     1.79865723975282     0.19245755633854     0.18994172461407     0.16257284951544     0.02947706117856
    7     0.02008694680288     0.00642459459466     0.00867705877550     0.05931160975898     0.89144579760066
    8     0.01548303927548     0.00172937970838     0.00334773650544     0.05910240997272     0.90512809139318
    9     0.02058187326038     0.00133764678050     0.02349956682091     0.05575055439831     0.88677141082782

                 6                   7                   8                   9

    1     1.79865723975282     0.02008694680288     0.01548303927548     0.02058187326038
    2     0.19245755633854     0.00642459459466     0.00172937970838     0.00133764678050
    3     0.18994172461407     0.00867705877550     0.00334773650544     0.02349956682091
    4     0.16257284951544     0.05931160975898     0.05910240997272     0.05575055439831
    5     0.02947706117856     0.89144579760066     0.90512809139318     0.88677141082782
    6     0.00000000000000     0.00142660780111     0.00278660723457     0.00100215417438
    7     0.00142660780111     0.00000000000000     0.00932405811417     0.00718879357884
    8     0.00278660723457     0.00932405811417     0.00000000000000     0.00981890610547
    9     0.00100215417438     0.00718879357884     0.00981890610547     0.00000000000000



  Atomic Valences: 

 #  #
 Irrep: 1
      1:    6.449095857903802
      2:    2.385831180746041
      3:    2.424307960094970
      4:    2.970275964785271
      5:    4.346105215003276
      6:    2.378321800609482
      7:    1.003885467026792
      8:    1.006720228309409
      9:    1.005950905946605


    Psi4 stopped on: Thursday, 03 November 2022 01:01PM
    Psi4 wall time for execution: 0:00:17.70

*** Psi4 exiting successfully. Buy a developer a beer!
