2022-11-03:13:01:08,68 INFO     [psi4.driver.task_planner:266] PLANNING Atomic:  keywords={'FREEZE_CORE': 'TRUE', 'function_kwargs': {}}
2022-11-03:13:01:08,72 INFO     [psi4.driver.driver:499] Compute energy(): method=wb97x-d, basis=6-311+g*, molecule=default, nre=363.8965716073813
2022-11-03:13:01:22,763 INFO     [psi4.driver.driver:502] Return energy(): -739.0048317660733
gio,
    A. Alenaizan, A. M. James, S. Lehtola, J. P. Misiewicz, M. Scheurer,
    R. A. Shaw, J. B. Schriber, Y. Xie, Z. L. Glick, D. A. Sirianni,
    J. S. O'Brien, J. M. Waldrop, A. Kumar, E. G. Hohenstein,
    B. P. Pritchard, B. R. Brooks, H. F. Schaefer III, A. Yu. Sokolov,
    K. Patkowski, A. E. DePrince III, U. Bozkaya, R. A. King,
    F. A. Evangelista, J. M. Turney, T. D. Crawford, C. D. Sherrill,
    J. Chem. Phys. 152(18) 184108 (2020). https://doi.org/10.1063/5.0006002

                            Additional Code Authors
    E. T. Seidl, C. L. Janssen, E. F. Valeev, M. L. Leininger,
    J. F. Gonthier, R. M. Richard, H. R. McAlexander, M. Saitow, X. Wang,
    P. Verma, M. H. Lechner, and A. Jiang

             Previous Authors, Complete List of Code Contributors,
                       and Citations for Specific Modules
    https://github.com/psi4/psi4/blob/master/codemeta.json
    https://github.com/psi4/psi4/graphs/contributors
    http://psicode.org/psi4manual/master/introduction.html#citing-psifour

    -----------------------------------------------------------------------


    Psi4 started on: Thursday, 03 November 2022 01:01PM

    Process ID: 9350
    Host:       DESKTOP-26BCFJT
    PSIDATADIR: /home/chase/psi4conda/share/psi4
    Memory:     500.0 MiB
    Threads:    1
    
  ==> Input File <==

--------------------------------------------------------------------------
molecule { 
-1 1
 S   -0.399859    0.042543   -0.236530
 O   -1.275007    0.993324   -0.885903
 O   -0.634417   -1.344331   -0.602544
 O    1.106722    0.397115   -0.882154
 C    1.996132   -0.489309   -0.292925
 O   -0.239873    0.246735    1.193732
 H    1.711070   -1.517936   -0.540805
 H    3.003994   -0.274721   -0.662103
 H    1.956924   -0.378216    0.796298
}
memory 1GB
set_num_threads(2)
psi4_io.set_default_path("/home/chase/temp/Psi4-mso4")
set freeze_core True
E, wfn = energy('wb97x-d/6-311+G*',return_wfn=True)
oeprop(wfn,"WIBERG_LOWDIN_INDICES")
clean()
--------------------------------------------------------------------------

  Memory set to 953.674 MiB by Python driver.
  Threads set to 2 by Python driver.

Scratch directory: /home/chase/temp/Psi4-mso4/

*** tstart() called on DESKTOP-26BCFJT
*** at Thu Nov  3 13:01:08 2022

   => Loading Basis Set <=

    Name: 6-311+G*
    Role: ORBITAL
    Keyword: BASIS
    atoms 1      entry S          line   430 file /home/chase/psi4conda/share/psi4/basis/6-311pgs.gbs 
    atoms 2-4, 6 entry O          line   172 file /home/chase/psi4conda/share/psi4/basis/6-311pgs.gbs 
    atoms 5      entry C          line   130 file /home/chase/psi4conda/share/psi4/basis/6-311pgs.gbs 
    atoms 7-9    entry H          line    47 file /home/chase/psi4conda/share/psi4/basis/6-311pgs.gbs 

   => WB97X-D: Empirical Dispersion <=

    Chai and Head-Gordon Dispersion Correction
    Chai, J.-D.; Head-Gordon, M. (2010), J. Chem. Phys., 132: 6615-6620

        s6 =       1.000000


         ---------------------------------------------------------
                                   SCF
               by Justin Turney, Rob Parrish, Andy Simmonett
                          and Daniel G. A. Smith
                              RKS Reference
                        2 Threads,    953 MiB Core
         ---------------------------------------------------------

  ==> Geometry <==

    Molecular point group: c1
    Full point group: C1

    Geometry (in Angstrom), charge = -1, multiplicity = 1:

       Center              X                  Y                   Z               Mass       
    ------------   -----------------  -----------------  -----------------  -----------------
         S           -0.410830477878     0.060703647235     0.036604570674    31.972071174400
         O           -1.285978477878     1.011484647235    -0.612768429326    15.994914619570
         O           -0.645388477878    -1.326170352765    -0.329409429326    15.994914619570
         O            1.095750522122     0.415275647235    -0.609019429326    15.994914619570
         C            1.985160522122    -0.471148352765    -0.019790429326    12.000000000000
         O           -0.250844477878     0.264895647235     1.466866570674    15.994914619570
         H            1.700098522122    -1.499775352765    -0.267670429326     1.007825032230
         H            2.993022522122    -0.256560352765    -0.388968429326     1.007825032230
         H            1.945952522122    -0.360055352765     1.069432570674     1.007825032230

  Running in c1 symmetry.

  Rotational constants: A =      0.17005  B =      0.09652  C =      0.09577 [cm^-1]
  Rotational constants: A =   5097.97044  B =   2893.61476  C =   2871.07149 [MHz]
  Nuclear repulsion =  363.896571607381247

  Charge       = -1
  Multiplicity = 1
  Electrons    = 58
  Nalpha       = 29
  Nbeta        = 29

  ==> Algorithm <==

  SCF Algorithm Type is DF.
  DIIS enabled.
  MOM disabled.
  Fractional occupation disabled.
  Guess Type is SAD.
  Energy threshold   = 1.00e-06
  Density threshold  = 1.00e-06
  Integral threshold = 1.00e-12

  ==> Primary Basis <==

  Basis Set: 6-311+G*
    Blend: 6-311+G*
    Number of shells: 73
    Number of basis functions: 149
    Number of Cartesian functions: 155
    Spherical Harmonics?: true
    Max angular momentum: 2

  ==> DFT Potential <==

   => LibXC <=

    Version 5.1.5
    S. Lehtola, C. Steigemann, M. J. Oliveira, and M. A. Marques, SoftwareX 7, 1 (2018) (10.1016/j.softx.2017.11.002)

   => Composite Functional: WB97X-D <= 

    wB97X-D Hyb-GGA Exchange-Correlation Functional

    J.-D. Chai and M. Head-Gordon, Phys. Chem. Chem. Phys. 10, 6615 (2008) (10.1039/B810189B)

    Deriv               =              1
    GGA                 =           TRUE
    Meta                =          FALSE

    Exchange Hybrid     =           TRUE
    MP2 Hybrid          =          FALSE

   => Exchange-Correlation Functionals <=

    1.0000   wB97X-D range-separated functional

   => Exact (HF) Exchange <=

    0.7780            HF,LR [omega = 0.2000]
    0.2220               HF 

   => LibXC Density Thresholds  <==

    XC_HYB_GGA_XC_WB97X_D:  1.00E-14 

   => Molecular Quadrature <=

    Radial Scheme          =       TREUTLER
    Pruning Scheme         =           NONE
    Nuclear Scheme         =       TREUTLER

    Blocking Scheme        =         OCTREE
    BS radius alpha        =              1
    Pruning alpha          =              1
    Radial Points          =             75
    Spherical Points       =            302
    Total Points           =         194133
    Total Blocks           =           1511
    Max Points             =            256
    Max Functions          =            146
    Weights Tolerance      =       1.00E-15

   => Loading Basis Set <=

    Name: (6-311+G* AUX)
    Role: JKFIT
    Keyword: DF_BASIS_SCF
    atoms 1      entry S          line   768 file /home/chase/psi4conda/share/psi4/basis/heavy-aug-cc-pvtz-jkfit.gbs 
    atoms 2-4, 6 entry O          line   324 file /home/chase/psi4conda/share/psi4/basis/heavy-aug-cc-pvtz-jkfit.gbs 
    atoms 5      entry C          line   200 file /home/chase/psi4conda/share/psi4/basis/heavy-aug-cc-pvtz-jkfit.gbs 
    atoms 7-9    entry H          line   116 file /home/chase/psi4conda/share/psi4/basis/heavy-aug-cc-pvtz-jkfit.gbs 

  ==> Integral Setup <==

  DFHelper Memory: AOs need 0.374 GiB; user supplied 0.374 GiB. Using in-core AOs.

  ==> MemDFJK: Density-Fitted J/K Matrices <==

    J tasked:                   Yes
    K tasked:                   Yes
    wK tasked:                  Yes
    Omega:                2.000E-01
    OpenMP threads:               2
    Memory [MiB]:               383
    Algorithm:                 Core
    Schwarz Cutoff:           1E-12
    Mask sparsity (%):       2.6035
    Fitting Condition:        1E-10

   => Auxiliary Basis Set <=

  Basis Set: (6-311+G* AUX)
    Blend: HEAVY-AUG-CC-PVTZ-JKFIT
    Number of shells: 222
    Number of basis functions: 756
    Number of Cartesian functions: 940
    Spherical Harmonics?: true
    Max angular momentum: 4

  Cached 50.0% of DFT collocation blocks in 0.311 [GiB].

  Minimum eigenvalue in the overlap matrix is 3.4375369350E-04.
  Reciprocal condition number of the overlap matrix is 3.5027447967E-05.
    Using symmetric orthogonalization.

  ==> Pre-Iterations <==

  SCF Guess: Superposition of Atomic Densities via on-the-fly atomic UHF (no occupation information).

   -------------------------
    Irrep   Nso     Nmo    
   -------------------------
     A        149     149 
   -------------------------
    Total     149     149
   -------------------------

  ==> Iterations <==

                           Total Energy        Delta E     RMS |[F,P]|

   @DF-RKS iter SAD:  -738.96600380967141   -7.38966e+02   0.00000e+00 
   @DF-RKS iter   1:  -738.52831356813920    4.37690e-01   7.81546e-03 ADIIS/DIIS
   @DF-RKS iter   2:  -738.45741280839411    7.09008e-02   8.78261e-03 ADIIS/DIIS
   @DF-RKS iter   3:  -739.00023598937241   -5.42823e-01   7.95432e-04 ADIIS/DIIS
   @DF-RKS iter   4:  -739.00420739030153   -3.97140e-03   2.71829e-04 ADIIS/DIIS
   @DF-RKS iter   5:  -739.00473443924886   -5.27049e-04   1.12538e-04 ADIIS/DIIS
   @DF-RKS iter   6:  -739.00482584771760   -9.14085e-05   2.48136e-05 DIIS
   @DF-RKS iter   7:  -739.00483150604578   -5.65833e-06   4.44325e-06 DIIS
   @DF-RKS iter   8:  -739.00483174149383   -2.35448e-07   1.45643e-06 DIIS
   @DF-RKS iter   9:  -739.00483176607327   -2.45794e-08   3.36440e-07 DIIS
  Energy and wave function converged.


  ==> Post-Iterations <==

   Electrons on quadrature grid:
      Ntotal   =   57.9999940976 ; deviation = -5.902e-06 

    Orbital Energies [Eh]
    ---------------------

    Doubly Occupied:                                                      

       1A    -89.061735     2A    -19.112594     3A    -19.043566  
       4A    -19.043516     5A    -19.043087     6A    -10.178198  
       7A     -8.073938     8A     -6.023243     9A     -6.020975  
      10A     -6.020827    11A     -1.087132    12A     -0.974574  
      13A     -0.918970    14A     -0.917566    15A     -0.646319  
      16A     -0.518144    17A     -0.440948    18A     -0.411808  
      19A     -0.406843    20A     -0.373606    21A     -0.355223  
      22A     -0.316912    23A     -0.256304    24A     -0.253643  
      25A     -0.239957    26A     -0.236880    27A     -0.208385  
      28A     -0.195554    29A     -0.165850  

    Virtual:                                                              

      30A      0.180423    31A      0.217561    32A      0.223264  
      33A      0.229511    34A      0.256743    35A      0.259163  
      36A      0.260369    37A      0.300318    38A      0.337523  
      39A      0.348922    40A      0.360335    41A      0.374518  
      42A      0.384284    43A      0.414452    44A      0.419606  
      45A      0.422892    46A      0.443453    47A      0.446945  
      48A      0.467921    49A      0.476626    50A      0.487588  
      51A      0.496303    52A      0.501656    53A      0.503074  
      54A      0.516801    55A      0.519663    56A      0.523970  
      57A      0.532217    58A      0.550531    59A      0.567492  
      60A      0.609726    61A      0.612059    62A      0.633802  
      63A      0.647424    64A      0.684010    65A      0.696020  
      66A      0.728819    67A      0.785331    68A      0.861253  
      69A      0.861856    70A      0.911965    71A      0.954343  
      72A      0.998900    73A      1.082779    74A      1.206808  
      75A      1.227157    76A      1.245911    77A      1.266333  
      78A      1.293074    79A      1.334643    80A      1.339292  
      81A      1.374226    82A      1.393495    83A      1.401373  
      84A      1.413702    85A      1.416722    86A      1.438452  
      87A      1.475067    88A      1.485931    89A      1.532535  
      90A      1.596051    91A      1.629591    92A      1.776613  
      93A      1.801558    94A      1.841593    95A      1.844912  
      96A      1.897373    97A      1.981293    98A      2.057770  
      99A      2.084370   100A      2.085484   101A      2.172445  
     102A      2.669982   103A      2.672825   104A      2.737232  
     105A      3.033628   106A      3.039301   107A      3.093570  
     108A      3.095348   109A      3.102017   110A      3.111020  
     111A      3.124223   112A      3.127576   113A      3.155200  
     114A      3.171831   115A      3.223370   116A      3.288470  
     117A      3.319384   118A      3.342522   119A      3.449619  
     120A      3.457240   121A      3.458546   122A      3.511517  
     123A      3.538664   124A      3.743260   125A      3.890353  
     126A      3.893076   127A      4.174537   128A      5.232885  
     129A      5.259911   130A      5.294642   131A      5.295694  
     132A      5.318509   133A      5.325518   134A      5.337355  
     135A      5.337942   136A      5.440775   137A      5.592659  
     138A      5.621142   139A      5.698794   140A      8.455736  
     141A     17.609978   142A     17.740386   143A     17.778980  
     144A     23.845102   145A     50.167119   146A     50.197259  
     147A     50.200798   148A     50.260618   149A    189.625759  

    Final Occupation by Irrep:
              A 
    DOCC [    29 ]

  @DF-RKS Final Energy:  -739.00483176607327

   => Energetics <=

    Nuclear Repulsion Energy =            363.8965716073812473
    One-Electron Energy =               -1752.0842619329796435
    Two-Electron Energy =                 696.8972530072593372
    DFT Exchange-Correlation Energy =     -47.7122230005393604
    Empirical Dispersion Energy =          -0.0021714471948440
    VV10 Nonlocal Energy =                  0.0000000000000000
    Total Energy =                       -739.0048317660732664

Computation Completed


Properties will be evaluated at   0.000000,   0.000000,   0.000000 [a0]

Properties computed using the SCF density matrix


 Multipole Moments:

 ------------------------------------------------------------------------------------
     Multipole            Electronic (a.u.)      Nuclear  (a.u.)        Total (a.u.)
 ------------------------------------------------------------------------------------

 L = 1.  Multiply by 2.5417464519 to convert [e a0] to [Debye]
 Dipole X            :         -4.7728279            6.2078670            1.4350391
 Dipole Y            :          1.6622382           -1.9806940           -0.3184558
 Dipole Z            :         -0.4186085            0.3875423           -0.0310662
 Magnitude           :                                                    1.4702777

 ------------------------------------------------------------------------------------

*** tstop() called on DESKTOP-26BCFJT at Thu Nov  3 13:01:22 2022
Module time:
	user time   =      28.48 seconds =       0.47 minutes
	system time =       0.45 seconds =       0.01 minutes
	total time  =         14 seconds =       0.23 minutes
Total time:
	user time   =      28.48 seconds =       0.47 minutes
	system time =       0.45 seconds =       0.01 minutes
	total time  =         14 seconds =       0.23 minutes


Properties will be evaluated at   0.000000,   0.000000,   0.000000 [a0]
OEProp: No title given, name of density matrix used for the following properties is 'SCF density'


  Wiberg Bond Indices using Orthogonal Lowdin Orbitals:

  Irrep: 1 Size: 9 x 9

                 1                   2                   3                   4                   5

    1     0.00000000000000     1.80975536961094     1.76077943714893     0.95520424703476     0.11195634822585
    2     1.80975536961094     0.00000000000000     0.18859114736066     0.15895688440391     0.02984745224681
    3     1.76077943714893     0.18859114736066     0.00000000000000     0.15465407519704     0.07878078465324
    4     0.95520424703476     0.15895688440391     0.15465407519704     0.00000000000000     1.37484761800475
    5     0.11195634822585     0.02984745224681     0.07878078465324     1.37484761800475     0.00000000000000
    6     1.75986672993110     0.18862440962845     0.19550988402045     0.15426095483739     0.07938935436647
    7     0.02112904881691     0.00125223520790     0.01937387880422     0.05754733683913     0.88518836309155
    8     0.01517646626539     0.00279964005667     0.00215729638322     0.05903408148926     0.90567318738977
    9     0.02234374690277     0.00130989428617     0.00415782519817     0.05676605111919     0.88275464255651

                 6                   7                   8                   9

    1     1.75986672993110     0.02112904881691     0.01517646626539     0.02234374690277
    2     0.18862440962845     0.00125223520790     0.00279964005667     0.00130989428617
    3     0.19550988402045     0.01937387880422     0.00215729638322     0.00415782519817
    4     0.15426095483739     0.05754733683913     0.05903408148926     0.05676605111919
    5     0.07938935436647     0.88518836309155     0.90567318738977     0.88275464255651
    6     0.00000000000000     0.00363681331843     0.00197457542171     0.02086256860102
    7     0.00363681331843     0.00000000000000     0.00964346636278     0.00756098846412
    8     0.00197457542171     0.00964346636278     0.00000000000000     0.00973740820841
    9     0.02086256860102     0.00756098846412     0.00973740820841     0.00000000000000



  Atomic Valences: 

 #  #
 Irrep: 1
      1:    6.456211393936647
      2:    2.381137032801520
      3:    2.404004328765924
      4:    2.971271248925425
      5:    4.348437750534941
      6:    2.404125290125012
      7:    1.005332130905049
      8:    1.006196121577213
      9:    1.005493125336364


    Psi4 stopped on: Thursday, 03 November 2022 01:01PM
    Psi4 wall time for execution: 0:00:14.76

*** Psi4 exiting successfully. Buy a developer a beer!
