2022-11-03:13:00:48,350 INFO     [psi4.driver.task_planner:266] PLANNING Atomic:  keywords={'FREEZE_CORE': 'TRUE', 'function_kwargs': {}}
2022-11-03:13:00:48,354 INFO     [psi4.driver.driver:499] Compute energy(): method=wb97x-d, basis=6-311+g*, molecule=default, nre=361.27247513255566
2022-11-03:13:01:05,846 INFO     [psi4.driver.driver:502] Return energy(): -739.0033004660851
,
    A. Alenaizan, A. M. James, S. Lehtola, J. P. Misiewicz, M. Scheurer,
    R. A. Shaw, J. B. Schriber, Y. Xie, Z. L. Glick, D. A. Sirianni,
    J. S. O'Brien, J. M. Waldrop, A. Kumar, E. G. Hohenstein,
    B. P. Pritchard, B. R. Brooks, H. F. Schaefer III, A. Yu. Sokolov,
    K. Patkowski, A. E. DePrince III, U. Bozkaya, R. A. King,
    F. A. Evangelista, J. M. Turney, T. D. Crawford, C. D. Sherrill,
    J. Chem. Phys. 152(18) 184108 (2020). https://doi.org/10.1063/5.0006002

                            Additional Code Authors
    E. T. Seidl, C. L. Janssen, E. F. Valeev, M. L. Leininger,
    J. F. Gonthier, R. M. Richard, H. R. McAlexander, M. Saitow, X. Wang,
    P. Verma, M. H. Lechner, and A. Jiang

             Previous Authors, Complete List of Code Contributors,
                       and Citations for Specific Modules
    https://github.com/psi4/psi4/blob/master/codemeta.json
    https://github.com/psi4/psi4/graphs/contributors
    http://psicode.org/psi4manual/master/introduction.html#citing-psifour

    -----------------------------------------------------------------------


    Psi4 started on: Thursday, 03 November 2022 01:00PM

    Process ID: 9335
    Host:       DESKTOP-26BCFJT
    PSIDATADIR: /home/chase/psi4conda/share/psi4
    Memory:     500.0 MiB
    Threads:    1
    
  ==> Input File <==

--------------------------------------------------------------------------
molecule { 
-1 1
 S   -0.434675   -0.325995    0.115192
 O   -1.214229   -1.434924   -0.399585
 O   -0.771147    0.054494    1.473236
 O    1.124734   -0.957663    0.248609
 C    2.024669   -0.254756   -0.529663
 O   -0.319755    0.794784   -0.803469
 H    2.078823    0.793848   -0.216310
 H    3.010014   -0.723096   -0.417197
 H    1.727249   -0.271482   -1.583747
}
memory 1GB
set_num_threads(2)
psi4_io.set_default_path("/home/chase/temp/Psi4-mso4")
set freeze_core True
E, wfn = energy('wb97x-d/6-311+G*',return_wfn=True)
oeprop(wfn,"WIBERG_LOWDIN_INDICES")
clean()
--------------------------------------------------------------------------

  Memory set to 953.674 MiB by Python driver.
  Threads set to 2 by Python driver.

Scratch directory: /home/chase/temp/Psi4-mso4/

*** tstart() called on DESKTOP-26BCFJT
*** at Thu Nov  3 13:00:48 2022

   => Loading Basis Set <=

    Name: 6-311+G*
    Role: ORBITAL
    Keyword: BASIS
    atoms 1      entry S          line   430 file /home/chase/psi4conda/share/psi4/basis/6-311pgs.gbs 
    atoms 2-4, 6 entry O          line   172 file /home/chase/psi4conda/share/psi4/basis/6-311pgs.gbs 
    atoms 5      entry C          line   130 file /home/chase/psi4conda/share/psi4/basis/6-311pgs.gbs 
    atoms 7-9    entry H          line    47 file /home/chase/psi4conda/share/psi4/basis/6-311pgs.gbs 

   => WB97X-D: Empirical Dispersion <=

    Chai and Head-Gordon Dispersion Correction
    Chai, J.-D.; Head-Gordon, M. (2010), J. Chem. Phys., 132: 6615-6620

        s6 =       1.000000


         ---------------------------------------------------------
                                   SCF
               by Justin Turney, Rob Parrish, Andy Simmonett
                          and Daniel G. A. Smith
                              RKS Reference
                        2 Threads,    953 MiB Core
         ---------------------------------------------------------

  ==> Geometry <==

    Molecular point group: c1
    Full point group: C1

    Geometry (in Angstrom), charge = -1, multiplicity = 1:

       Center              X                  Y                   Z               Mass       
    ------------   -----------------  -----------------  -----------------  -----------------
         S           -0.420145996148     0.019732713091     0.084641171130    31.972071174400
         O           -1.199699996148    -1.089196286909    -0.430135828870    15.994914619570
         O           -0.756617996148     0.400221713091     1.442685171130    15.994914619570
         O            1.139263003852    -0.611935286909     0.218058171130    15.994914619570
         C            2.039198003852     0.090971713091    -0.560213828870    12.000000000000
         O           -0.305225996148     1.140511713091    -0.834019828870    15.994914619570
         H            2.093352003852     1.139575713091    -0.246860828870     1.007825032230
         H            3.024543003852    -0.377368286909    -0.447747828870     1.007825032230
         H            1.741778003852     0.074245713091    -1.614297828870     1.007825032230

  Running in c1 symmetry.

  Rotational constants: A =      0.16984  B =      0.09300  C =      0.09229 [cm^-1]
  Rotational constants: A =   5091.75474  B =   2787.93998  C =   2766.91723 [MHz]
  Nuclear repulsion =  361.272475132555655

  Charge       = -1
  Multiplicity = 1
  Electrons    = 58
  Nalpha       = 29
  Nbeta        = 29

  ==> Algorithm <==

  SCF Algorithm Type is DF.
  DIIS enabled.
  MOM disabled.
  Fractional occupation disabled.
  Guess Type is SAD.
  Energy threshold   = 1.00e-06
  Density threshold  = 1.00e-06
  Integral threshold = 1.00e-12

  ==> Primary Basis <==

  Basis Set: 6-311+G*
    Blend: 6-311+G*
    Number of shells: 73
    Number of basis functions: 149
    Number of Cartesian functions: 155
    Spherical Harmonics?: true
    Max angular momentum: 2

  ==> DFT Potential <==

   => LibXC <=

    Version 5.1.5
    S. Lehtola, C. Steigemann, M. J. Oliveira, and M. A. Marques, SoftwareX 7, 1 (2018) (10.1016/j.softx.2017.11.002)

   => Composite Functional: WB97X-D <= 

    wB97X-D Hyb-GGA Exchange-Correlation Functional

    J.-D. Chai and M. Head-Gordon, Phys. Chem. Chem. Phys. 10, 6615 (2008) (10.1039/B810189B)

    Deriv               =              1
    GGA                 =           TRUE
    Meta                =          FALSE

    Exchange Hybrid     =           TRUE
    MP2 Hybrid          =          FALSE

   => Exchange-Correlation Functionals <=

    1.0000   wB97X-D range-separated functional

   => Exact (HF) Exchange <=

    0.7780            HF,LR [omega = 0.2000]
    0.2220               HF 

   => LibXC Density Thresholds  <==

    XC_HYB_GGA_XC_WB97X_D:  1.00E-14 

   => Molecular Quadrature <=

    Radial Scheme          =       TREUTLER
    Pruning Scheme         =           NONE
    Nuclear Scheme         =       TREUTLER

    Blocking Scheme        =         OCTREE
    BS radius alpha        =              1
    Pruning alpha          =              1
    Radial Points          =             75
    Spherical Points       =            302
    Total Points           =         194335
    Total Blocks           =           1517
    Max Points             =            256
    Max Functions          =            146
    Weights Tolerance      =       1.00E-15

   => Loading Basis Set <=

    Name: (6-311+G* AUX)
    Role: JKFIT
    Keyword: DF_BASIS_SCF
    atoms 1      entry S          line   768 file /home/chase/psi4conda/share/psi4/basis/heavy-aug-cc-pvtz-jkfit.gbs 
    atoms 2-4, 6 entry O          line   324 file /home/chase/psi4conda/share/psi4/basis/heavy-aug-cc-pvtz-jkfit.gbs 
    atoms 5      entry C          line   200 file /home/chase/psi4conda/share/psi4/basis/heavy-aug-cc-pvtz-jkfit.gbs 
    atoms 7-9    entry H          line   116 file /home/chase/psi4conda/share/psi4/basis/heavy-aug-cc-pvtz-jkfit.gbs 

  ==> Integral Setup <==

  DFHelper Memory: AOs need 0.374 GiB; user supplied 0.374 GiB. Using in-core AOs.

  ==> MemDFJK: Density-Fitted J/K Matrices <==

    J tasked:                   Yes
    K tasked:                   Yes
    wK tasked:                  Yes
    Omega:                2.000E-01
    OpenMP threads:               2
    Memory [MiB]:               382
    Algorithm:                 Core
    Schwarz Cutoff:           1E-12
    Mask sparsity (%):       2.7927
    Fitting Condition:        1E-10

   => Auxiliary Basis Set <=

  Basis Set: (6-311+G* AUX)
    Blend: HEAVY-AUG-CC-PVTZ-JKFIT
    Number of shells: 222
    Number of basis functions: 756
    Number of Cartesian functions: 940
    Spherical Harmonics?: true
    Max angular momentum: 4

  Cached 50.0% of DFT collocation blocks in 0.308 [GiB].

  Minimum eigenvalue in the overlap matrix is 4.8110983865E-04.
  Reciprocal condition number of the overlap matrix is 5.0106024835E-05.
    Using symmetric orthogonalization.

  ==> Pre-Iterations <==

  SCF Guess: Superposition of Atomic Densities via on-the-fly atomic UHF (no occupation information).

   -------------------------
    Irrep   Nso     Nmo    
   -------------------------
     A        149     149 
   -------------------------
    Total     149     149
   -------------------------

  ==> Iterations <==

                           Total Energy        Delta E     RMS |[F,P]|

   @DF-RKS iter SAD:  -738.90943803525875   -7.38909e+02   0.00000e+00 
   @DF-RKS iter   1:  -738.51864203042487    3.90796e-01   7.86770e-03 DIIS/ADIIS
   @DF-RKS iter   2:  -738.44093470657128    7.77073e-02   8.88595e-03 DIIS/ADIIS
   @DF-RKS iter   3:  -738.99868176499194   -5.57747e-01   8.00448e-04 DIIS/ADIIS
   @DF-RKS iter   4:  -739.00262286039879   -3.94110e-03   2.84967e-04 DIIS/ADIIS
   @DF-RKS iter   5:  -739.00319909265659   -5.76232e-04   1.14535e-04 DIIS/ADIIS
   @DF-RKS iter   6:  -739.00329482723350   -9.57346e-05   2.38217e-05 DIIS
   @DF-RKS iter   7:  -739.00330019154126   -5.36431e-06   4.58478e-06 DIIS
   @DF-RKS iter   8:  -739.00330043694237   -2.45401e-07   1.73196e-06 DIIS
   @DF-RKS iter   9:  -739.00330046608508   -2.91427e-08   6.62900e-07 DIIS
  Energy and wave function converged.


  ==> Post-Iterations <==

   Electrons on quadrature grid:
      Ntotal   =   58.0000015510 ; deviation = 1.551e-06 

    Orbital Energies [Eh]
    ---------------------

    Doubly Occupied:                                                      

       1A    -89.061517     2A    -19.109072     3A    -19.047603  
       4A    -19.040770     5A    -19.040756     6A    -10.183944  
       7A     -8.073542     8A     -6.022898     9A     -6.020678  
      10A     -6.020314    11A     -1.083546    12A     -0.972909  
      13A     -0.920051    14A     -0.914510    15A     -0.650232  
      16A     -0.516784    17A     -0.441609    18A     -0.411568  
      19A     -0.408178    20A     -0.364997    21A     -0.361860  
      22A     -0.310199    23A     -0.263562    24A     -0.253584  
      25A     -0.239888    26A     -0.239205    27A     -0.209341  
      28A     -0.184753    29A     -0.164991  

    Virtual:                                                              

      30A      0.178295    31A      0.215823    32A      0.221540  
      33A      0.226238    34A      0.255200    35A      0.256153  
      36A      0.260232    37A      0.297100    38A      0.333080  
      39A      0.355985    40A      0.362520    41A      0.383880  
      42A      0.386937    43A      0.397898    44A      0.400122  
      45A      0.416218    46A      0.446609    47A      0.447441  
      48A      0.457592    49A      0.472767    50A      0.488669  
      51A      0.491427    52A      0.494155    53A      0.505221  
      54A      0.518576    55A      0.523468    56A      0.526719  
      57A      0.535588    58A      0.550573    59A      0.570936  
      60A      0.598421    61A      0.608132    62A      0.635301  
      63A      0.655267    64A      0.661778    65A      0.704713  
      66A      0.722988    67A      0.775928    68A      0.841359  
      69A      0.872119    70A      0.897046    71A      0.957242  
      72A      1.004978    73A      1.079406    74A      1.171858  
      75A      1.226189    76A      1.236271    77A      1.291687  
      78A      1.317203    79A      1.330997    80A      1.372532  
      81A      1.381468    82A      1.400457    83A      1.401838  
      84A      1.414165    85A      1.420660    86A      1.436977  
      87A      1.471338    88A      1.478653    89A      1.498925  
      90A      1.601395    91A      1.646825    92A      1.800633  
      93A      1.821863    94A      1.833743    95A      1.839439  
      96A      1.931684    97A      1.981803    98A      2.024625  
      99A      2.083674   100A      2.096138   101A      2.140626  
     102A      2.645535   103A      2.661224   104A      2.722521  
     105A      3.033054   106A      3.046231   107A      3.093414  
     108A      3.099665   109A      3.101582   110A      3.118105  
     111A      3.120219   112A      3.130555   113A      3.147302  
     114A      3.167934   115A      3.231325   116A      3.284880  
     117A      3.323730   118A      3.388290   119A      3.428611  
     120A      3.445904   121A      3.462303   122A      3.523037  
     123A      3.528632   124A      3.738091   125A      3.894116  
     126A      3.900859   127A      4.183195   128A      5.221603  
     129A      5.283352   130A      5.292994   131A      5.307444  
     132A      5.322330   133A      5.329593   134A      5.334165  
     135A      5.338981   136A      5.425586   137A      5.599496  
     138A      5.601393   139A      5.719786   140A      8.448470  
     141A     17.608764   142A     17.746576   143A     17.756560  
     144A     23.825450   145A     50.165782   146A     50.197068  
     147A     50.208963   148A     50.260323   149A    189.616355  

    Final Occupation by Irrep:
              A 
    DOCC [    29 ]

  @DF-RKS Final Energy:  -739.00330046608508

   => Energetics <=

    Nuclear Repulsion Energy =            361.2724751325556554
    One-Electron Energy =               -1746.8638246218256427
    Two-Electron Energy =                 694.2957732220893377
    DFT Exchange-Correlation Energy =     -47.7055042848614050
    Empirical Dispersion Energy =          -0.0022199140429948
    VV10 Nonlocal Energy =                  0.0000000000000000
    Total Energy =                       -739.0033004660849656

Computation Completed


Properties will be evaluated at   0.000000,   0.000000,   0.000000 [a0]

Properties computed using the SCF density matrix


 Multipole Moments:

 ------------------------------------------------------------------------------------
     Multipole            Electronic (a.u.)      Nuclear  (a.u.)        Total (a.u.)
 ------------------------------------------------------------------------------------

 L = 1.  Multiply by 2.5417464519 to convert [e a0] to [Debye]
 Dipole X            :         -4.9362188            6.4142543            1.4780356
 Dipole Y            :         -0.6872240            0.7838993            0.0966753
 Dipole Z            :          1.7280901           -2.1603902           -0.4323001
 Magnitude           :                                                    1.5429902

 ------------------------------------------------------------------------------------

*** tstop() called on DESKTOP-26BCFJT at Thu Nov  3 13:01:05 2022
Module time:
	user time   =      34.17 seconds =       0.57 minutes
	system time =       0.47 seconds =       0.01 minutes
	total time  =         17 seconds =       0.28 minutes
Total time:
	user time   =      34.17 seconds =       0.57 minutes
	system time =       0.47 seconds =       0.01 minutes
	total time  =         17 seconds =       0.28 minutes


Properties will be evaluated at   0.000000,   0.000000,   0.000000 [a0]
OEProp: No title given, name of density matrix used for the following properties is 'SCF density'


  Wiberg Bond Indices using Orthogonal Lowdin Orbitals:

  Irrep: 1 Size: 9 x 9

                 1                   2                   3                   4                   5

    1     0.00000000000000     1.79603059983848     1.79621580589559     0.93607118157234     0.10150114478393
    2     1.79603059983848     0.00000000000000     0.19431371201604     0.16269358679675     0.03005565793126
    3     1.79621580589559     0.19431371201604     0.00000000000000     0.16264409037809     0.02998295290730
    4     0.93607118157234     0.16269358679675     0.16264409037809     0.00000000000000     1.38321799400289
    5     0.10150114478393     0.03005565793126     0.02998295290730     1.38321799400289     0.00000000000000
    6     1.75591440812653     0.19310510363629     0.19294868264171     0.14570618458069     0.10858136259100
    7     0.01844148613549     0.00110115495338     0.00152905949227     0.05749564175949     0.89367715072107
    8     0.01590664955512     0.00253883466122     0.00256814297400     0.05898022668458     0.90433211473636
    9     0.01921909090664     0.00163349218818     0.00109155421558     0.05678289497465     0.89248556456343

                 6                   7                   8                   9

    1     1.75591440812653     0.01844148613549     0.01590664955512     0.01921909090664
    2     0.19310510363629     0.00110115495338     0.00253883466122     0.00163349218818
    3     0.19294868264171     0.00152905949227     0.00256814297400     0.00109155421558
    4     0.14570618458069     0.05749564175949     0.05898022668458     0.05678289497465
    5     0.10858136259100     0.89367715072107     0.90433211473636     0.89248556456343
    6     0.00000000000000     0.01641601879715     0.00368212772424     0.01748867731511
    7     0.01641601879715     0.00000000000000     0.00954056984145     0.00687154286035
    8     0.00368212772424     0.00954056984145     0.00000000000000     0.00958800538283
    9     0.01748867731511     0.00687154286035     0.00958800538283     0.00000000000000



  Atomic Valences: 

 #  #
 Irrep: 1
      1:    6.439300366814111
      2:    2.381472142021596
      3:    2.381294000520589
      4:    2.963591800749493
      5:    4.343833942237254
      6:    2.433842565412726
      7:    1.005072624560654
      8:    1.007136671559805
      9:    1.005160822406772


    Psi4 stopped on: Thursday, 03 November 2022 01:01PM
    Psi4 wall time for execution: 0:00:17.56

*** Psi4 exiting successfully. Buy a developer a beer!
