      -----------------------------------------------------------      
     |                   =====================                   |     
     |                           x T B                           |     
     |                   =====================                   |     
     |                         S. Grimme                         |     
     |          Mulliken Center for Theoretical Chemistry        |     
     |                    University of Bonn                     |     
      -----------------------------------------------------------      

   * xtb version 6.5.1 (b24c23e) compiled by 'conda@728c89f4b128' on 2022-07-12

   xtb is free software: you can redistribute it and/or modify it under
   the terms of the GNU Lesser General Public License as published by
   the Free Software Foundation, either version 3 of the License, or
   (at your option) any later version.
   
   xtb is distributed in the hope that it will be useful,
   but WITHOUT ANY WARRANTY; without even the implied warranty of
   MERCHANTABILITY or FITNESS FOR A PARTICULAR PURPOSE.  See the
   GNU Lesser General Public License for more details.
   
   Cite this work as:
   * C. Bannwarth, E. Caldeweyher, S. Ehlert, A. Hansen, P. Pracht,
     J. Seibert, S. Spicher, S. Grimme, WIREs Comput. Mol. Sci., 2020, 11,
     e01493. DOI: 10.1002/wcms.1493
   
   for GFN2-xTB:
   * C. Bannwarth, S. Ehlert and S. Grimme., J. Chem. Theory Comput., 2019,
     15, 1652-1671. DOI: 10.1021/acs.jctc.8b01176
   for GFN1-xTB:
   * S. Grimme, C. Bannwarth, P. Shushkov, J. Chem. Theory Comput., 2017,
     13, 1989-2009. DOI: 10.1021/acs.jctc.7b00118
   for GFN0-xTB:
   * P. Pracht, E. Caldeweyher, S. Ehlert, S. Grimme, ChemRxiv, 2019, preprint.
     DOI: 10.26434/chemrxiv.8326202.v1
   for GFN-FF:
   * S. Spicher and S. Grimme, Angew. Chem. Int. Ed., 2020, 59, 15665-15673.
     DOI: 10.1002/anie.202004239
   
   for ALPB and GBSA implicit solvation:
   * S. Ehlert, M. Stahn, S. Spicher, S. Grimme, J. Chem. Theory Comput.,
     2021, 17, 4250-4261. DOI: 10.1021/acs.jctc.1c00471
   
   for DFT-D4:
   * E. Caldeweyher, C. Bannwarth and S. Grimme, J. Chem. Phys., 2017,
     147, 034112. DOI: 10.1063/1.4993215
   * E. Caldeweyher, S. Ehlert, A. Hansen, H. Neugebauer, S. Spicher,
     C. Bannwarth and S. Grimme, J. Chem. Phys., 2019, 150, 154122.
     DOI: 10.1063/1.5090222
   * E. Caldeweyher, J.-M. Mewes, S. Ehlert and S. Grimme, Phys. Chem. Chem. Phys.
     2020, 22, 8499-8512. DOI: 10.1039/D0CP00502A
   
   for sTDA-xTB:
   * S. Grimme and C. Bannwarth, J. Chem. Phys., 2016, 145, 054103.
     DOI: 10.1063/1.4959605
   
   in the mass-spec context:
   * V. Asgeirsson, C. Bauer and S. Grimme, Chem. Sci., 2017, 8, 4879.
     DOI: 10.1039/c7sc00601b
   * J. Koopman and S. Grimme, ACS Omega 2019, 4, 12, 15120-15133.
     DOI: 10.1021/acsomega.9b02011
   
   for metadynamics refer to:
   * S. Grimme, J. Chem. Theory Comput., 2019, 155, 2847-2862
     DOI: 10.1021/acs.jctc.9b00143
   
   for SPH calculations refer to:
   * S. Spicher and S. Grimme, J. Chem. Theory Comput., 2021, 17, 1701-1714
     DOI: 10.1021/acs.jctc.0c01306
   
   with help from (in alphabetical order)
   P. Atkinson, C. Bannwarth, F. Bohle, G. Brandenburg, E. Caldeweyher
   M. Checinski, S. Dohm, S. Ehlert, S. Ehrlich, I. Gerasimov, C. Hölzer
   A. Katbashev, J. Koopman, C. Lavigne, S. Lehtola, F. März, M. Müller,
   F. Musil, H. Neugebauer, J. Pisarek, C. Plett, P. Pracht, F. Pultar,
   J. Seibert, P. Shushkov, S. Spicher, M. Stahn, M. Steiner, T. Strunk,
   J. Stückrath, T. Rose, and J. Unsleber
   
 * started run on 2022/11/03 at 12:53:49.904     

           -------------------------------------------------
          |                Calculation Setup                |
           -------------------------------------------------

          program call               : /home/chase/psi4conda/envs/xtbenv/bin/xtb --gfn 2 --chrg -1 --uhf 0 mso4-opt-4-5-241_preQMOPTprefit_xyzformat.xyz --opt --input xtb-opt-4-5-241_constr.txt
          coordinate file            : mso4-opt-4-5-241_preQMOPTprefit_xyzformat.xyz
          omp threads                :                     8

   ID    Z sym.   atoms
    1   16 S      1
    2    8 O      2-4, 6
    3    6 C      5
    4    1 H      7-9
constraining angle 1 4 5 7 to  241.0013832°, actual value: -118.9986168°
constraining angle 2 1 4 5 to  300.0018084°, actual value:  -59.9981916°

           -------------------------------------------------
          |                 G F N 2 - x T B                 |
           -------------------------------------------------

        Reference                      10.1021/acs.jctc.8b01176
      * Hamiltonian:
        H0-scaling (s, p, d)           1.850000    2.230000    2.230000
        zeta-weighting                 0.500000
      * Dispersion:
        s8                             2.700000
        a1                             0.520000
        a2                             5.000000
        s9                             5.000000
      * Repulsion:
        kExp                           1.500000    1.000000
        rExp                           1.000000
      * Coulomb:
        alpha                          2.000000
        third order                    shell-resolved
        anisotropic                    true
        a3                             3.000000
        a5                             4.000000
        cn-shift                       1.200000
        cn-exp                         4.000000
        max-rad                        5.000000

q/qsh data taken from xtbrestart
CAMM data taken from xtbrestart

          ...................................................
          :                      SETUP                      :
          :.................................................:
          :  # basis functions                  33          :
          :  # atomic orbitals                  32          :
          :  # shells                           16          :
          :  # electrons                        38          :
          :  max. iterations                   250          :
          :  Hamiltonian                  GFN2-xTB          :
          :  restarted?                       true          :
          :  GBSA solvation                  false          :
          :  PC potential                    false          :
          :  electronic temp.          300.0000000     K    :
          :  accuracy                    1.0000000          :
          :  -> integral cutoff          0.2500000E+02      :
          :  -> integral neglect         0.1000000E-07      :
          :  -> SCF convergence          0.1000000E-05 Eh   :
          :  -> wf. convergence          0.1000000E-03 e    :
          :  Broyden damping             0.4000000          :
          ...................................................

 iter      E             dE          RMSdq      gap      omega  full diag
   1    -23.5602768 -0.235603E+02  0.103E+00    7.51       0.0  T
   2    -23.5605883 -0.311550E-03  0.564E-01    7.54       1.0  T
   3    -23.5606206 -0.322737E-04  0.148E-01    7.56       1.0  T
   4    -23.5606230 -0.243440E-05  0.540E-02    7.55       1.0  T
   5    -23.5606235 -0.487241E-06  0.738E-03    7.55       4.5  T
   6    -23.5606235 -0.377972E-07  0.419E-03    7.55       7.9  T
   7    -23.5606236 -0.133088E-07  0.798E-04    7.55      41.8  T
   8    -23.5606236 -0.520814E-09  0.424E-04    7.55      78.6  T

   *** convergence criteria satisfied after 8 iterations ***

         #    Occupation            Energy/Eh            Energy/eV
      -------------------------------------------------------------
         1        2.0000           -0.5709066             -15.5352
       ...           ...                  ...                  ...
        13        2.0000           -0.2762260              -7.5165
        14        2.0000           -0.2564457              -6.9782
        15        2.0000           -0.2493356              -6.7848
        16        2.0000           -0.2488579              -6.7718
        17        2.0000           -0.2420042              -6.5853
        18        2.0000           -0.2393179              -6.5122
        19        2.0000           -0.2288636              -6.2277 (HOMO)
        20                          0.0487708               1.3271 (LUMO)
        21                          0.1079942               2.9387
        22                          0.1827969               4.9742
        23                          0.2264804               6.1628
        24                          0.2593497               7.0573
       ...                                ...                  ...
        32                          1.2821767              34.8898
      -------------------------------------------------------------
                  HL-Gap            0.2776343 Eh            7.5548 eV
             Fermi-level           -0.0900464 Eh           -2.4503 eV

 SCC (total)                   0 d,  0 h,  0 min,  0.299 sec
 SCC setup                      ...        0 min,  0.011 sec (  3.635%)
 Dispersion                     ...        0 min,  0.013 sec (  4.432%)
 classical contributions        ...        0 min,  0.008 sec (  2.557%)
 integral evaluation            ...        0 min,  0.011 sec (  3.743%)
 iterations                     ...        0 min,  0.201 sec ( 67.059%)
 molecular gradient             ...        0 min,  0.055 sec ( 18.520%)
 printout                       ...        0 min,  0.000 sec (  0.049%)

         :::::::::::::::::::::::::::::::::::::::::::::::::::::
         ::                     SUMMARY                     ::
         :::::::::::::::::::::::::::::::::::::::::::::::::::::
         :: total energy             -23.453072023567 Eh    ::
         :: gradient norm              0.057228257426 Eh/a0 ::
         :: HOMO-LUMO gap              7.554815010679 eV    ::
         ::.................................................::
         :: SCC energy               -23.560623556184 Eh    ::
         :: -> isotropic ES            0.216010570239 Eh    ::
         :: -> anisotropic ES         -0.016068713757 Eh    ::
         :: -> anisotropic XC         -0.004183944584 Eh    ::
         :: -> dispersion             -0.006917270554 Eh    ::
         :: repulsion energy           0.107549201093 Eh    ::
         :: add. restraining           0.000000000000 Eh    ::
         :: total charge              -1.000000000000 e     ::
         :::::::::::::::::::::::::::::::::::::::::::::::::::::

      ----------------------------------------------------------- 
     |                   =====================                   |
     |                        A N C O P T                        |
     |                   =====================                   |
     |               Approximate Normal Coordinate               |
     |                Rational Function Optimizer                |
      ----------------------------------------------------------- 

          ...................................................
          :                      SETUP                      :
          :.................................................:
          :   optimization level            normal          :
          :   max. optcycles                   200          :
          :   ANC micro-cycles                  20          :
          :   degrees of freedom                21          :
          :.................................................:
          :   RF solver                   davidson          :
          :   write xtbopt.log                true          :
          :   linear?                        false          :
          :   energy convergence         0.5000000E-05 Eh   :
          :   grad. convergence          0.1000000E-02 Eh/α :
          :   maximium RF displ.         1.0000000          :
          :   Hlow (freq-cutoff)         0.1000000E-01      :
          :   Hmax (freq-cutoff)         5.0000000          :
          :   S6 in model hess.         20.0000000          :
          ...................................................

generating ANC from model Hessian ...
Using Lindh-Hessian (1995)
 Shifting diagonal of input Hessian by    0.0000000000000000     
 Lowest  eigenvalues of input Hessian
    0.000000    0.000000    0.000000    0.000000    0.000000    0.000000
    0.017844    0.038538    0.056853    0.076767    0.090640    0.099757
    0.133691    0.213527    0.313494    0.383367    0.481226    0.523144
 Highest eigenvalues
    1.361198    1.796022    2.195163    2.851468    4.329131    7.574274


........................................................................
.............................. CYCLE    1 ..............................
........................................................................
   1    -23.5606236 -0.235606E+02  0.136E-04    7.55       0.0  T
   2    -23.5606236 -0.134079E-10  0.954E-05    7.55     349.4  T
   3    -23.5606236 -0.151346E-10  0.263E-05    7.55    1265.2  T
     SCC iter.                  ...        0 min,  0.047 sec
     gradient                   ...        0 min,  0.042 sec
 * total energy  :   -23.4530720 Eh     change       -0.2130989E-09 Eh
   gradient norm :     0.0572286 Eh/α   predicted     0.0000000E+00 (-100.00%)
   displ. norm   :     0.2799630 α      lambda       -0.6072180E-02
   maximum displ.:     0.2473110 α      in ANC's #1, #5, #9, ...

........................................................................
.............................. CYCLE    2 ..............................
........................................................................
   1    -23.5699430 -0.235699E+02  0.324E-01    7.99       0.0  T
   2    -23.5700018 -0.588150E-04  0.191E-01    7.97       1.0  T
   3    -23.5700060 -0.422502E-05  0.680E-02    7.96       1.0  T
   4    -23.5700066 -0.562655E-06  0.176E-02    7.97       1.9  T
   5    -23.5700067 -0.104855E-06  0.388E-03    7.97       8.6  T
   6    -23.5700067 -0.836354E-08  0.247E-03    7.97      13.5  T
   7    -23.5700067 -0.528881E-08  0.342E-04    7.97      97.5  T
   8    -23.5700067 -0.115197E-09  0.211E-04    7.97     157.9  T
     SCC iter.                  ...        0 min,  0.179 sec
     gradient                   ...        0 min,  0.068 sec
 * total energy  :   -23.4575865 Eh     change       -0.4514474E-02 Eh
   gradient norm :     0.0322165 Eh/α   predicted    -0.3274058E-02 ( -27.48%)
   displ. norm   :     0.2556391 α      lambda       -0.3138094E-02
   maximum displ.:     0.2341688 α      in ANC's #1, #9, #2, ...

........................................................................
.............................. CYCLE    3 ..............................
........................................................................
   1    -23.5780981 -0.235781E+02  0.272E-01    8.41       0.0  T
   2    -23.5781442 -0.461320E-04  0.163E-01    8.39       1.0  T
   3    -23.5781475 -0.330536E-05  0.587E-02    8.39       1.0  T
   4    -23.5781479 -0.395152E-06  0.148E-02    8.39       2.3  T
   5    -23.5781480 -0.887529E-07  0.316E-03    8.39      10.5  T
   6    -23.5781480 -0.126413E-07  0.728E-04    8.39      45.8  T
   7    -23.5781480 -0.845670E-09  0.404E-04    8.39      82.5  T
     SCC iter.                  ...        0 min,  0.187 sec
     gradient                   ...        0 min,  0.059 sec
 * total energy  :   -23.4591809 Eh     change       -0.1594398E-02 Eh
   gradient norm :     0.0125421 Eh/α   predicted    -0.1671587E-02 (   4.84%)
   displ. norm   :     0.0228943 α      lambda       -0.1066674E-03
   maximum displ.:     0.0159239 α      in ANC's #5, #2, #1, ...

........................................................................
.............................. CYCLE    4 ..............................
........................................................................
   1    -23.5792544 -0.235793E+02  0.486E-02    8.44       0.0  T
   2    -23.5792555 -0.102271E-05  0.251E-02    8.44       1.3  T
   3    -23.5792555 -0.775666E-07  0.913E-03    8.44       3.7  T
   4    -23.5792555 -0.979110E-08  0.265E-03    8.44      12.6  T
   5    -23.5792555 -0.226685E-08  0.535E-04    8.44      62.3  T
   6    -23.5792555 -0.307455E-09  0.292E-04    8.44     114.2  T
     SCC iter.                  ...        0 min,  0.126 sec
     gradient                   ...        0 min,  0.044 sec
 * total energy  :   -23.4592448 Eh     change       -0.6395037E-04 Eh
   gradient norm :     0.0038093 Eh/α   predicted    -0.5336182E-04 ( -16.56%)
   displ. norm   :     0.0158994 α      lambda       -0.2482051E-04
   maximum displ.:     0.0107572 α      in ANC's #5, #1, #9, ...

........................................................................
.............................. CYCLE    5 ..............................
........................................................................
   1    -23.5796632 -0.235797E+02  0.313E-02    8.48       0.0  T
   2    -23.5796639 -0.765110E-06  0.164E-02    8.48       2.0  T
   3    -23.5796640 -0.303417E-07  0.768E-03    8.48       4.3  T
   4    -23.5796640 -0.679026E-08  0.204E-03    8.48      16.3  T
   5    -23.5796640 -0.873033E-09  0.308E-04    8.48     108.1  T
   6    -23.5796640 -0.449809E-10  0.187E-04    8.48     178.0  T
     SCC iter.                  ...        0 min,  0.111 sec
     gradient                   ...        0 min,  0.045 sec
 * total energy  :   -23.4592590 Eh     change       -0.1411272E-04 Eh
   gradient norm :     0.0019786 Eh/α   predicted    -0.1241448E-04 ( -12.03%)
   displ. norm   :     0.0113394 α      lambda       -0.4298407E-05
   maximum displ.:     0.0086565 α      in ANC's #1, #3, #2, ...

........................................................................
.............................. CYCLE    6 ..............................
........................................................................
   1    -23.5797186 -0.235797E+02  0.151E-02    8.49       0.0  T
   2    -23.5797189 -0.326563E-06  0.951E-03    8.49       3.5  T
   3    -23.5797190 -0.559960E-08  0.565E-03    8.49       5.9  T
   4    -23.5797190 -0.268266E-08  0.814E-04    8.49      41.0  T
   5    -23.5797190 -0.151534E-09  0.179E-04    8.49     186.6  T
     SCC iter.                  ...        0 min,  0.120 sec
     gradient                   ...        0 min,  0.058 sec
 * total energy  :   -23.4592616 Eh     change       -0.2620141E-05 Eh
   gradient norm :     0.0018332 Eh/α   predicted    -0.2149923E-05 ( -17.95%)
   displ. norm   :     0.0025626 α      lambda       -0.9919817E-06
   maximum displ.:     0.0016470 α      in ANC's #5, #1, #10, ...

........................................................................
.............................. CYCLE    7 ..............................
........................................................................
   1    -23.5796563 -0.235797E+02  0.545E-03    8.48       0.0  T
   2    -23.5796563 -0.116870E-07  0.273E-03    8.48      12.2  T
   3    -23.5796563 -0.125513E-08  0.685E-04    8.48      48.7  T
   4    -23.5796563 -0.421352E-10  0.330E-04    8.48     101.1  T
     SCC iter.                  ...        0 min,  0.124 sec
     gradient                   ...        0 min,  0.066 sec
 * total energy  :   -23.4592623 Eh     change       -0.7529823E-06 Eh
   gradient norm :     0.0006041 Eh/α   predicted    -0.4971305E-06 ( -33.98%)
   displ. norm   :     0.0016135 α      lambda       -0.1823849E-06
   maximum displ.:     0.0007999 α      in ANC's #5, #2, #8, ...

   *** GEOMETRY OPTIMIZATION CONVERGED AFTER 7 ITERATIONS ***

------------------------------------------------------------------------
 total energy gain   :        -0.0061903 Eh       -3.8845 kcal/mol
 total RMSD          :         0.1773877 a0        0.0939 Å
 total power (kW/mol):        -2.3218073 (step)  -10.2173 (real)
------------------------------------------------------------------------

 ANCopt (total)                0 d,  0 h,  0 min,  1.591 sec
 optimizer setup                ...        0 min,  0.000 sec (  0.004%)
 model hessian                  ...        0 min,  0.004 sec (  0.250%)
 ANC generation                 ...        0 min,  0.000 sec (  0.018%)
 coordinate transformation      ...        0 min,  0.000 sec (  0.002%)
 single point calculation       ...        0 min,  1.541 sec ( 96.887%)
 optimization log               ...        0 min,  0.001 sec (  0.037%)
 hessian update                 ...        0 min,  0.044 sec (  2.744%)
 rational function              ...        0 min,  0.001 sec (  0.037%)

================
 final structure:
================
9
 xtb: 6.5.1 (b24c23e)
S           -0.28628014910242        0.02827717819795        0.32849537671396
O           -0.86360113454299       -1.06457326216529       -0.43598410019450
O            0.35066430849315       -0.40621962594401        1.56040934793178
O            0.97647507390242        0.59040475922211       -0.62517299097707
C            1.86875201097831       -0.45469230546770       -0.81393487081645
O           -1.13775907902866        1.18907663752834        0.46327519621302
H            2.85205774017109       -0.19375146740073       -0.40113102448809
H            1.48893183994856       -1.34195174577795       -0.30404210780239
H            1.97644439918051       -0.67136316819272       -1.88484782658026

 Bond Distances (Angstroems)
 ---------------------------
S1-O2=1.4533         S1-O3=1.4533         S1-O4=1.6793         S1-O6=1.4459         O2-S1=1.4533         O3-S1=1.4533         
O4-S1=1.6793         O4-C5=1.3871         C5-O4=1.3871         C5-H7=1.0979         C5-H8=1.0916         C5-H9=1.0979         
O6-S1=1.4459         H7-C5=1.0979         H8-C5=1.0916         H9-C5=1.0979         
 C  H  Rav=1.0958 sigma=0.0030  Rmin=1.0916  Rmax=1.0979     3
 O  C  Rav=1.3871 sigma=0.0000  Rmin=1.3871  Rmax=1.3871     1
 S  O  Rav=1.5079 sigma=0.0990  Rmin=1.4459  Rmax=1.6793     4

 selected bond angles (degree)
 --------------------
O3-S1-O2=113.28                O4-S1-O2=104.58                O4-S1-O3=104.59                O6-S1-O2=114.76                
O6-S1-O3=114.78                O6-S1-O4=103.12                C5-O4-S1=107.99                H7-C5-O4=110.24                
H8-C5-O4=108.97                H8-C5-H7=109.22                H9-C5-O4=110.15                H9-C5-H7=109.01                
H9-C5-H8=109.23                

 selected dihedral angles (degree)
 ---------------------------------
C5-O4-S1-O2=300.01            C5-O4-S1-O3= 59.32            C5-O4-S1-O6=179.68            H7-C5-O4-S1=241.00            
H8-C5-O4-S1=  0.84            H9-C5-O4-S1=120.65            
           -------------------------------------------------
          |                Final Singlepoint                |
           -------------------------------------------------

          ...................................................
          :                      SETUP                      :
          :.................................................:
          :  # basis functions                  33          :
          :  # atomic orbitals                  32          :
          :  # shells                           16          :
          :  # electrons                        38          :
          :  max. iterations                   250          :
          :  Hamiltonian                  GFN2-xTB          :
          :  restarted?                      false          :
          :  GBSA solvation                  false          :
          :  PC potential                    false          :
          :  electronic temp.          300.0000000     K    :
          :  accuracy                    1.0000000          :
          :  -> integral cutoff          0.2500000E+02      :
          :  -> integral neglect         0.1000000E-07      :
          :  -> SCF convergence          0.1000000E-05 Eh   :
          :  -> wf. convergence          0.1000000E-03 e    :
          :  Broyden damping             0.4000000          :
          ...................................................

 iter      E             dE          RMSdq      gap      omega  full diag
   1    -23.5796563 -0.235797E+02  0.407E-05    8.48       0.0  T
   2    -23.5796563 -0.561329E-12  0.275E-05    8.48    1211.3  T
   3    -23.5796563 -0.408562E-12  0.523E-06    8.48    6372.6  T

   *** convergence criteria satisfied after 3 iterations ***

         #    Occupation            Energy/Eh            Energy/eV
      -------------------------------------------------------------
         1        2.0000           -0.5695785             -15.4990
       ...           ...                  ...                  ...
        13        2.0000           -0.2765839              -7.5262
        14        2.0000           -0.2590783              -7.0499
        15        2.0000           -0.2537623              -6.9052
        16        2.0000           -0.2514224              -6.8416
        17        2.0000           -0.2398975              -6.5279
        18        2.0000           -0.2385870              -6.4923
        19        2.0000           -0.2283898              -6.2148 (HOMO)
        20                          0.0832654               2.2658 (LUMO)
        21                          0.1423285               3.8730
        22                          0.2098271               5.7097
        23                          0.2373930               6.4598
        24                          0.2735605               7.4440
       ...                                ...                  ...
        32                          1.4196243              38.6299
      -------------------------------------------------------------
                  HL-Gap            0.3116552 Eh            8.4806 eV
             Fermi-level           -0.0725622 Eh           -1.9745 eV

 SCC (total)                   0 d,  0 h,  0 min,  0.150 sec
 SCC setup                      ...        0 min,  0.005 sec (  3.508%)
 Dispersion                     ...        0 min,  0.009 sec (  5.855%)
 classical contributions        ...        0 min,  0.006 sec (  3.856%)
 integral evaluation            ...        0 min,  0.014 sec (  9.256%)
 iterations                     ...        0 min,  0.066 sec ( 43.956%)
 molecular gradient             ...        0 min,  0.050 sec ( 33.469%)
 printout                       ...        0 min,  0.000 sec (  0.091%)

         :::::::::::::::::::::::::::::::::::::::::::::::::::::
         ::                     SUMMARY                     ::
         :::::::::::::::::::::::::::::::::::::::::::::::::::::
         :: total energy             -23.459262331392 Eh    ::
         :: gradient norm              0.000603899619 Eh/a0 ::
         :: HOMO-LUMO gap              8.480570903125 eV    ::
         ::.................................................::
         :: SCC energy               -23.579656269447 Eh    ::
         :: -> isotropic ES            0.213590064436 Eh    ::
         :: -> anisotropic ES         -0.022983184968 Eh    ::
         :: -> anisotropic XC         -0.005769735011 Eh    ::
         :: -> dispersion             -0.007067755455 Eh    ::
         :: repulsion energy           0.120392035887 Eh    ::
         :: add. restraining           0.000000031673 Eh    ::
         :: total charge              -1.000000000000 e     ::
         :::::::::::::::::::::::::::::::::::::::::::::::::::::

           -------------------------------------------------
          |                Property Printout                |
           -------------------------------------------------

    * Orbital Energies and Occupations

         #    Occupation            Energy/Eh            Energy/eV
      -------------------------------------------------------------
         1        2.0000           -0.5695785             -15.4990
       ...           ...                  ...                  ...
         7        2.0000           -0.3906485             -10.6301
         8        2.0000           -0.3881928             -10.5633
         9        2.0000           -0.3815859             -10.3835
        10        2.0000           -0.3240558              -8.8180
        11        2.0000           -0.3182553              -8.6602
        12        2.0000           -0.3103440              -8.4449
        13        2.0000           -0.2765839              -7.5262
        14        2.0000           -0.2590783              -7.0499
        15        2.0000           -0.2537623              -6.9052
        16        2.0000           -0.2514224              -6.8416
        17        2.0000           -0.2398975              -6.5279
        18        2.0000           -0.2385870              -6.4923
        19        2.0000           -0.2283898              -6.2148 (HOMO)
        20                          0.0832654               2.2658 (LUMO)
        21                          0.1423285               3.8730
        22                          0.2098271               5.7097
        23                          0.2373930               6.4598
        24                          0.2735605               7.4440
        25                          0.3005049               8.1772
        26                          0.3302286               8.9860
        27                          0.3622756               9.8580
        28                          0.4243278              11.5465
        29                          0.4504164              12.2565
        30                          0.9436130              25.6770
       ...                                ...                  ...
        32                          1.4196243              38.6299
      -------------------------------------------------------------
                  HL-Gap            0.3116552 Eh            8.4806 eV
             Fermi-level           -0.0725622 Eh           -1.9745 eV

     #   Z          covCN         q      C6AA      α(0)
     1  16 S        3.712     1.437    95.010    16.405
     2   8 O        0.860    -0.708    28.927     7.211
     3   8 O        0.860    -0.708    28.929     7.211
     4   8 O        1.706    -0.483    22.516     6.407
     5   6 C        3.901     0.067    19.410     6.263
     6   8 O        0.860    -0.677    28.095     7.107
     7   1 H        0.924     0.016     2.792     2.613
     8   1 H        0.925     0.041     2.435     2.440
     9   1 H        0.924     0.016     2.793     2.613

 Mol. C6AA /au·bohr⁶  :       1571.386378
 Mol. C8AA /au·bohr⁸  :      40490.673824
 Mol. α(0) /au        :         58.270048


Wiberg/Mayer (AO) data.
largest (>0.10) Wiberg bond orders for each atom

 ---------------------------------------------------------------------------
     #   Z sym  total        # sym  WBO       # sym  WBO       # sym  WBO
 ---------------------------------------------------------------------------
     1  16 S    5.056 --     6 O    1.451     3 O    1.406     2 O    1.406
                             4 O    0.776
     2   8 O    1.726 --     1 S    1.406     3 O    0.122     6 O    0.119
     3   8 O    1.726 --     1 S    1.406     2 O    0.122     6 O    0.119
     4   8 O    2.023 --     5 C    1.010     1 S    0.776
     5   6 C    3.958 --     4 O    1.010     9 H    0.979     7 H    0.979
                             8 H    0.974
     6   8 O    1.762 --     1 S    1.451     2 O    0.119     3 O    0.119
     7   1 H    1.000 --     5 C    0.979
     8   1 H    0.998 --     5 C    0.974
     9   1 H    1.000 --     5 C    0.979
 ---------------------------------------------------------------------------

Topologies differ in total number of bonds
Writing topology from bond orders to xtbtopo.mol

molecular dipole:
                 x           y           z       tot (Debye)
 q only:        0.972      -0.204      -0.831
   full:        1.204      -0.225      -0.964       3.961
molecular quadrupole (traceless):
                xx          xy          yy          xz          yz          zz
 q only:        2.226      -0.499      -1.163      -1.800       0.011      -1.063
  q+dip:        2.158       0.665      -1.734      -1.592      -0.267      -0.424
   full:        2.558       0.196      -1.770      -2.052      -0.178      -0.789

           -------------------------------------------------
          |                Geometry Summary                 |
           -------------------------------------------------

      molecular mass/u    :      111.0969652
   center of mass at/Å    :        0.0796245      -0.0165643       0.1219336
  moments of inertia/u·Å² :        0.9928366E+02   0.1766212E+03   0.1783916E+03
rotational constants/cm⁻¹ :        0.1697926E+00   0.9544510E-01   0.9449791E-01

 * 7 selected distances

     #   Z          #   Z                                           value/Å
     1  16 S        2   8 O                                       1.4532897
     1  16 S        3   8 O                                       1.4533059 (max)
     4   8 O        5   6 C                                       1.3870895
     1  16 S        6   8 O                                       1.4459038
     5   6 C        7   1 H                                       1.0979014
     5   6 C        8   1 H                                       1.0915510 (min)
     5   6 C        9   1 H                                       1.0979065

 * 3 distinct bonds (by element types)

   Z      Z             #   av. dist./Å        max./Å        min./Å
   1 H    6 C           3     1.0957863     1.0979065     1.0915510
   6 C    8 O           1     1.3870895     1.3870895     1.3870895
   8 O   16 S           3     1.4508331     1.4533059     1.4459038


optimized geometry written to: xtbopt.xyz


           -------------------------------------------------
          | TOTAL ENERGY              -23.459262331392 Eh   |
          | GRADIENT NORM               0.000603899619 Eh/α |
          | HOMO-LUMO GAP               8.480570903125 eV   |
           -------------------------------------------------

------------------------------------------------------------------------
 * finished run on 2022/11/03 at 12:53:52.040     
------------------------------------------------------------------------
 total:
 * wall-time:     0 d,  0 h,  0 min,  2.137 sec
 *  cpu-time:     0 d,  0 h,  0 min, 16.951 sec
 * ratio c/w:     7.933 speedup
 SCF:
 * wall-time:     0 d,  0 h,  0 min,  0.299 sec
 *  cpu-time:     0 d,  0 h,  0 min,  2.387 sec
 * ratio c/w:     7.973 speedup
 ANC optimizer:
 * wall-time:     0 d,  0 h,  0 min,  1.741 sec
 *  cpu-time:     0 d,  0 h,  0 min, 13.826 sec
 * ratio c/w:     7.941 speedup

