      -----------------------------------------------------------      
     |                   =====================                   |     
     |                           x T B                           |     
     |                   =====================                   |     
     |                         S. Grimme                         |     
     |          Mulliken Center for Theoretical Chemistry        |     
     |                    University of Bonn                     |     
      -----------------------------------------------------------      

   * xtb version 6.5.1 (b24c23e) compiled by 'conda@728c89f4b128' on 2022-07-12

   xtb is free software: you can redistribute it and/or modify it under
   the terms of the GNU Lesser General Public License as published by
   the Free Software Foundation, either version 3 of the License, or
   (at your option) any later version.
   
   xtb is distributed in the hope that it will be useful,
   but WITHOUT ANY WARRANTY; without even the implied warranty of
   MERCHANTABILITY or FITNESS FOR A PARTICULAR PURPOSE.  See the
   GNU Lesser General Public License for more details.
   
   Cite this work as:
   * C. Bannwarth, E. Caldeweyher, S. Ehlert, A. Hansen, P. Pracht,
     J. Seibert, S. Spicher, S. Grimme, WIREs Comput. Mol. Sci., 2020, 11,
     e01493. DOI: 10.1002/wcms.1493
   
   for GFN2-xTB:
   * C. Bannwarth, S. Ehlert and S. Grimme., J. Chem. Theory Comput., 2019,
     15, 1652-1671. DOI: 10.1021/acs.jctc.8b01176
   for GFN1-xTB:
   * S. Grimme, C. Bannwarth, P. Shushkov, J. Chem. Theory Comput., 2017,
     13, 1989-2009. DOI: 10.1021/acs.jctc.7b00118
   for GFN0-xTB:
   * P. Pracht, E. Caldeweyher, S. Ehlert, S. Grimme, ChemRxiv, 2019, preprint.
     DOI: 10.26434/chemrxiv.8326202.v1
   for GFN-FF:
   * S. Spicher and S. Grimme, Angew. Chem. Int. Ed., 2020, 59, 15665-15673.
     DOI: 10.1002/anie.202004239
   
   for ALPB and GBSA implicit solvation:
   * S. Ehlert, M. Stahn, S. Spicher, S. Grimme, J. Chem. Theory Comput.,
     2021, 17, 4250-4261. DOI: 10.1021/acs.jctc.1c00471
   
   for DFT-D4:
   * E. Caldeweyher, C. Bannwarth and S. Grimme, J. Chem. Phys., 2017,
     147, 034112. DOI: 10.1063/1.4993215
   * E. Caldeweyher, S. Ehlert, A. Hansen, H. Neugebauer, S. Spicher,
     C. Bannwarth and S. Grimme, J. Chem. Phys., 2019, 150, 154122.
     DOI: 10.1063/1.5090222
   * E. Caldeweyher, J.-M. Mewes, S. Ehlert and S. Grimme, Phys. Chem. Chem. Phys.
     2020, 22, 8499-8512. DOI: 10.1039/D0CP00502A
   
   for sTDA-xTB:
   * S. Grimme and C. Bannwarth, J. Chem. Phys., 2016, 145, 054103.
     DOI: 10.1063/1.4959605
   
   in the mass-spec context:
   * V. Asgeirsson, C. Bauer and S. Grimme, Chem. Sci., 2017, 8, 4879.
     DOI: 10.1039/c7sc00601b
   * J. Koopman and S. Grimme, ACS Omega 2019, 4, 12, 15120-15133.
     DOI: 10.1021/acsomega.9b02011
   
   for metadynamics refer to:
   * S. Grimme, J. Chem. Theory Comput., 2019, 155, 2847-2862
     DOI: 10.1021/acs.jctc.9b00143
   
   for SPH calculations refer to:
   * S. Spicher and S. Grimme, J. Chem. Theory Comput., 2021, 17, 1701-1714
     DOI: 10.1021/acs.jctc.0c01306
   
   with help from (in alphabetical order)
   P. Atkinson, C. Bannwarth, F. Bohle, G. Brandenburg, E. Caldeweyher
   M. Checinski, S. Dohm, S. Ehlert, S. Ehrlich, I. Gerasimov, C. Hölzer
   A. Katbashev, J. Koopman, C. Lavigne, S. Lehtola, F. März, M. Müller,
   F. Musil, H. Neugebauer, J. Pisarek, C. Plett, P. Pracht, F. Pultar,
   J. Seibert, P. Shushkov, S. Spicher, M. Stahn, M. Steiner, T. Strunk,
   J. Stückrath, T. Rose, and J. Unsleber
   
 * started run on 2022/11/03 at 12:58:09.797     

           -------------------------------------------------
          |                Calculation Setup                |
           -------------------------------------------------

          program call               : /home/chase/psi4conda/envs/xtbenv/bin/xtb --gfn 2 --chrg -1 --uhf 0 mso4-opt-1-4-150_preQMOPTprefit_xyzformat.xyz --opt --input xtb-opt-1-4-150_constr.txt
          coordinate file            : mso4-opt-1-4-150_preQMOPTprefit_xyzformat.xyz
          omp threads                :                     8

   ID    Z sym.   atoms
    1   16 S      1
    2    8 O      2-4, 6
    3    6 C      5
    4    1 H      7-9
constraining angle 2 1 4 5 to  150.0473790°, actual value:  150.0473790°
constraining angle 1 4 5 7 to   60.9888592°, actual value:   60.9888592°

           -------------------------------------------------
          |                 G F N 2 - x T B                 |
           -------------------------------------------------

        Reference                      10.1021/acs.jctc.8b01176
      * Hamiltonian:
        H0-scaling (s, p, d)           1.850000    2.230000    2.230000
        zeta-weighting                 0.500000
      * Dispersion:
        s8                             2.700000
        a1                             0.520000
        a2                             5.000000
        s9                             5.000000
      * Repulsion:
        kExp                           1.500000    1.000000
        rExp                           1.000000
      * Coulomb:
        alpha                          2.000000
        third order                    shell-resolved
        anisotropic                    true
        a3                             3.000000
        a5                             4.000000
        cn-shift                       1.200000
        cn-exp                         4.000000
        max-rad                        5.000000

q/qsh data taken from xtbrestart
CAMM data taken from xtbrestart

          ...................................................
          :                      SETUP                      :
          :.................................................:
          :  # basis functions                  33          :
          :  # atomic orbitals                  32          :
          :  # shells                           16          :
          :  # electrons                        38          :
          :  max. iterations                   250          :
          :  Hamiltonian                  GFN2-xTB          :
          :  restarted?                       true          :
          :  GBSA solvation                  false          :
          :  PC potential                    false          :
          :  electronic temp.          300.0000000     K    :
          :  accuracy                    1.0000000          :
          :  -> integral cutoff          0.2500000E+02      :
          :  -> integral neglect         0.1000000E-07      :
          :  -> SCF convergence          0.1000000E-05 Eh   :
          :  -> wf. convergence          0.1000000E-03 e    :
          :  Broyden damping             0.4000000          :
          ...................................................

 iter      E             dE          RMSdq      gap      omega  full diag
   1    -23.5594171 -0.235594E+02  0.112E+00    7.51       0.0  T
   2    -23.5597627 -0.345587E-03  0.672E-01    7.55       1.0  T
   3    -23.5597974 -0.346624E-04  0.168E-01    7.57       1.0  T
   4    -23.5598009 -0.349418E-05  0.397E-02    7.57       1.0  T
   5    -23.5598013 -0.422173E-06  0.997E-03    7.57       3.3  T
   6    -23.5598013 -0.521536E-07  0.384E-03    7.57       8.7  T
   7    -23.5598013 -0.139721E-07  0.122E-03    7.57      27.2  T
   8    -23.5598013 -0.205124E-08  0.578E-04    7.57      57.6  T
   9    -23.5598013 -0.473150E-09  0.145E-04    7.57     229.6  T

   *** convergence criteria satisfied after 9 iterations ***

         #    Occupation            Energy/Eh            Energy/eV
      -------------------------------------------------------------
         1        2.0000           -0.5707381             -15.5306
       ...           ...                  ...                  ...
        13        2.0000           -0.2754931              -7.4965
        14        2.0000           -0.2543609              -6.9215
        15        2.0000           -0.2526605              -6.8752
        16        2.0000           -0.2469033              -6.7186
        17        2.0000           -0.2406581              -6.5486
        18        2.0000           -0.2388466              -6.4993
        19        2.0000           -0.2280278              -6.2050 (HOMO)
        20                          0.0500366               1.3616 (LUMO)
        21                          0.1093841               2.9765
        22                          0.1775619               4.8317
        23                          0.2211195               6.0170
        24                          0.2685388               7.3073
       ...                                ...                  ...
        32                          1.2790036              34.8035
      -------------------------------------------------------------
                  HL-Gap            0.2780644 Eh            7.5665 eV
             Fermi-level           -0.0889956 Eh           -2.4217 eV

 SCC (total)                   0 d,  0 h,  0 min,  0.312 sec
 SCC setup                      ...        0 min,  0.006 sec (  1.898%)
 Dispersion                     ...        0 min,  0.017 sec (  5.392%)
 classical contributions        ...        0 min,  0.009 sec (  2.810%)
 integral evaluation            ...        0 min,  0.017 sec (  5.366%)
 iterations                     ...        0 min,  0.199 sec ( 63.852%)
 molecular gradient             ...        0 min,  0.064 sec ( 20.621%)
 printout                       ...        0 min,  0.000 sec (  0.055%)

         :::::::::::::::::::::::::::::::::::::::::::::::::::::
         ::                     SUMMARY                     ::
         :::::::::::::::::::::::::::::::::::::::::::::::::::::
         :: total energy             -23.452209270432 Eh    ::
         :: gradient norm              0.057369836503 Eh/a0 ::
         :: HOMO-LUMO gap              7.566517443298 eV    ::
         ::.................................................::
         :: SCC energy               -23.559801344065 Eh    ::
         :: -> isotropic ES            0.216352891299 Eh    ::
         :: -> anisotropic ES         -0.015669660449 Eh    ::
         :: -> anisotropic XC         -0.004082609738 Eh    ::
         :: -> dispersion             -0.006906533473 Eh    ::
         :: repulsion energy           0.107589646185 Eh    ::
         :: add. restraining           0.000000000000 Eh    ::
         :: total charge              -1.000000000000 e     ::
         :::::::::::::::::::::::::::::::::::::::::::::::::::::

      ----------------------------------------------------------- 
     |                   =====================                   |
     |                        A N C O P T                        |
     |                   =====================                   |
     |               Approximate Normal Coordinate               |
     |                Rational Function Optimizer                |
      ----------------------------------------------------------- 

          ...................................................
          :                      SETUP                      :
          :.................................................:
          :   optimization level            normal          :
          :   max. optcycles                   200          :
          :   ANC micro-cycles                  20          :
          :   degrees of freedom                21          :
          :.................................................:
          :   RF solver                   davidson          :
          :   write xtbopt.log                true          :
          :   linear?                        false          :
          :   energy convergence         0.5000000E-05 Eh   :
          :   grad. convergence          0.1000000E-02 Eh/α :
          :   maximium RF displ.         1.0000000          :
          :   Hlow (freq-cutoff)         0.1000000E-01      :
          :   Hmax (freq-cutoff)         5.0000000          :
          :   S6 in model hess.         20.0000000          :
          ...................................................

generating ANC from model Hessian ...
Using Lindh-Hessian (1995)
 Shifting diagonal of input Hessian by    0.0000000000000000     
 Lowest  eigenvalues of input Hessian
    0.000000    0.000000    0.000000    0.000000    0.000000    0.000000
    0.019361    0.038661    0.059989    0.076973    0.091792    0.110812
    0.143149    0.212922    0.290626    0.347025    0.479514    0.532975
 Highest eigenvalues
    1.363864    1.726494    1.817956    3.180995    4.334852    8.130578


........................................................................
.............................. CYCLE    1 ..............................
........................................................................
   1    -23.5598013 -0.235598E+02  0.389E-05    7.57       0.0  T
   2    -23.5598013 -0.927258E-12  0.271E-05    7.57    1227.9  T
   3    -23.5598013 -0.873968E-12  0.836E-06    7.57    3989.6  T
     SCC iter.                  ...        0 min,  0.079 sec
     gradient                   ...        0 min,  0.079 sec
 * total energy  :   -23.4522093 Eh     change       -0.2536282E-10 Eh
   gradient norm :     0.0573703 Eh/α   predicted     0.0000000E+00 (-100.00%)
   displ. norm   :     0.2138232 α      lambda       -0.5101515E-02
   maximum displ.:     0.1798601 α      in ANC's #1, #4, #10, ...

........................................................................
.............................. CYCLE    2 ..............................
........................................................................
   1    -23.5687570 -0.235688E+02  0.227E-01    8.00       0.0  T
   2    -23.5688033 -0.463045E-04  0.148E-01    7.98       1.0  T
   3    -23.5688054 -0.205613E-05  0.677E-02    7.98       1.0  T
   4    -23.5688058 -0.415755E-06  0.131E-02    7.98       2.5  T
   5    -23.5688058 -0.493121E-07  0.298E-03    7.98      11.2  T
   6    -23.5688058 -0.507779E-08  0.168E-03    7.98      19.9  T
   7    -23.5688058 -0.141770E-08  0.240E-04    7.98     138.8  T
   8    -23.5688058 -0.243325E-10  0.885E-05    7.98     376.8  T
     SCC iter.                  ...        0 min,  0.170 sec
     gradient                   ...        0 min,  0.053 sec
 * total energy  :   -23.4560630 Eh     change       -0.3853778E-02 Eh
   gradient norm :     0.0323661 Eh/α   predicted    -0.2667377E-02 ( -30.79%)
   displ. norm   :     0.2289585 α      lambda       -0.2960502E-02
   maximum displ.:     0.2090361 α      in ANC's #1, #15, #10, ...

........................................................................
.............................. CYCLE    3 ..............................
........................................................................
   1    -23.5772120 -0.235772E+02  0.222E-01    8.45       0.0  T
   2    -23.5772526 -0.405695E-04  0.144E-01    8.43       1.0  T
   3    -23.5772549 -0.231536E-05  0.625E-02    8.43       1.0  T
   4    -23.5772553 -0.367439E-06  0.125E-02    8.43       2.7  T
   5    -23.5772553 -0.540437E-07  0.256E-03    8.43      13.0  T
   6    -23.5772553 -0.389981E-08  0.151E-03    8.43      22.1  T
   7    -23.5772553 -0.159121E-08  0.253E-04    8.43     131.7  T
   8    -23.5772553 -0.631672E-10  0.146E-04    8.43     227.8  T
     SCC iter.                  ...        0 min,  0.139 sec
     gradient                   ...        0 min,  0.050 sec
 * total energy  :   -23.4575644 Eh     change       -0.1501357E-02 Eh
   gradient norm :     0.0061655 Eh/α   predicted    -0.1557848E-02 (   3.76%)
   displ. norm   :     0.0203832 α      lambda       -0.5584400E-04
   maximum displ.:     0.0173112 α      in ANC's #4, #2, #7, ...

........................................................................
.............................. CYCLE    4 ..............................
........................................................................
   1    -23.5776839 -0.235777E+02  0.396E-02    8.45       0.0  T
   2    -23.5776843 -0.345576E-06  0.225E-02    8.45       1.5  T
   3    -23.5776843 -0.296649E-07  0.538E-03    8.45       6.2  T
   4    -23.5776843 -0.143402E-08  0.167E-03    8.45      20.0  T
   5    -23.5776843 -0.482277E-09  0.244E-04    8.45     136.4  T
   6    -23.5776843 -0.367599E-10  0.150E-04    8.45     222.7  T
     SCC iter.                  ...        0 min,  0.086 sec
     gradient                   ...        0 min,  0.062 sec
 * total energy  :   -23.4575994 Eh     change       -0.3496934E-04 Eh
   gradient norm :     0.0034701 Eh/α   predicted    -0.2793276E-04 ( -20.12%)
   displ. norm   :     0.0087537 α      lambda       -0.1151377E-04
   maximum displ.:     0.0051385 α      in ANC's #4, #7, #5, ...

........................................................................
.............................. CYCLE    5 ..............................
........................................................................
   1    -23.5779696 -0.235780E+02  0.191E-02    8.47       0.0  T
   2    -23.5779698 -0.206807E-06  0.106E-02    8.47       3.2  T
   3    -23.5779699 -0.897580E-08  0.457E-03    8.47       7.3  T
   4    -23.5779699 -0.131536E-08  0.914E-04    8.47      36.5  T
   5    -23.5779699 -0.198373E-09  0.172E-04    8.47     193.5  T
     SCC iter.                  ...        0 min,  0.101 sec
     gradient                   ...        0 min,  0.075 sec
 * total energy  :   -23.4576052 Eh     change       -0.5781296E-05 Eh
   gradient norm :     0.0020752 Eh/α   predicted    -0.5758763E-05 (  -0.39%)
   displ. norm   :     0.0043550 α      lambda       -0.2177077E-05
   maximum displ.:     0.0028260 α      in ANC's #1, #3, #7, ...

........................................................................
.............................. CYCLE    6 ..............................
........................................................................
   1    -23.5780294 -0.235780E+02  0.660E-03    8.48       0.0  T
   2    -23.5780294 -0.336157E-07  0.361E-03    8.48       9.2  T
   3    -23.5780294 -0.124309E-08  0.178E-03    8.48      18.7  T
   4    -23.5780294 -0.316192E-09  0.436E-04    8.48      76.5  T
   5    -23.5780294 -0.338893E-10  0.760E-05    8.48     438.7  T
     SCC iter.                  ...        0 min,  0.098 sec
     gradient                   ...        0 min,  0.049 sec
 * total energy  :   -23.4576065 Eh     change       -0.1368475E-05 Eh
   gradient norm :     0.0007943 Eh/α   predicted    -0.1088136E-05 ( -20.49%)
   displ. norm   :     0.0052482 α      lambda       -0.9793848E-06
   maximum displ.:     0.0027110 α      in ANC's #1, #4, #6, ...

   *** GEOMETRY OPTIMIZATION CONVERGED AFTER 6 ITERATIONS ***

------------------------------------------------------------------------
 total energy gain   :        -0.0053973 Eh       -3.3868 kcal/mol
 total RMSD          :         0.1445868 a0        0.0765 Å
 total power (kW/mol):        -2.3617480 (step)  -10.6112 (real)
------------------------------------------------------------------------

 ANCopt (total)                0 d,  0 h,  0 min,  1.335 sec
 optimizer setup                ...        0 min,  0.000 sec (  0.005%)
 model hessian                  ...        0 min,  0.002 sec (  0.152%)
 ANC generation                 ...        0 min,  0.000 sec (  0.026%)
 coordinate transformation      ...        0 min,  0.000 sec (  0.002%)
 single point calculation       ...        0 min,  1.301 sec ( 97.429%)
 optimization log               ...        0 min,  0.000 sec (  0.037%)
 hessian update                 ...        0 min,  0.031 sec (  2.287%)
 rational function              ...        0 min,  0.001 sec (  0.040%)

================
 final structure:
================
9
 xtb: 6.5.1 (b24c23e)
S           -0.44144963737878       -0.02261293237851       -0.29020916436782
O           -1.16371423884554        1.16240448507675       -0.70221331954901
O           -0.95223833599474       -1.26996299393094       -0.82742608107500
O            1.05927728959788        0.16886011280276       -1.02653682104929
C            2.02820678388204       -0.44644932211239       -0.25376243960535
O           -0.16249954391779       -0.07114503398952        1.13633849036759
H            1.81895146967521       -1.52065758884392       -0.16727492710507
H            3.00109750601701       -0.30135204615005       -0.73698918872701
H            2.03805470696469       -0.02387968047418        0.75514046111096

 Bond Distances (Angstroems)
 ---------------------------
S1-O2=1.4476         S1-O3=1.4510         S1-O4=1.6826         S1-O6=1.4544         O2-S1=1.4476         O3-S1=1.4510         
O4-S1=1.6826         O4-C5=1.3837         C5-O4=1.3837         C5-H7=1.0978         C5-H8=1.0959         C5-H9=1.0939         
O6-S1=1.4544         H7-C5=1.0978         H8-C5=1.0959         H9-C5=1.0939         
 C  H  Rav=1.0959 sigma=0.0016  Rmin=1.0939  Rmax=1.0978     3
 O  C  Rav=1.3837 sigma=0.0000  Rmin=1.3837  Rmax=1.3837     1
 S  O  Rav=1.5089 sigma=0.1003  Rmin=1.4476  Rmax=1.6826     4

 selected bond angles (degree)
 --------------------
O3-S1-O2=115.00                O4-S1-O2=103.14                O4-S1-O3=104.46                O6-S1-O2=113.71                
O6-S1-O3=113.70                O6-S1-O4=105.19                C5-O4-S1=109.24                H7-C5-O4=110.22                
H8-C5-O4=108.45                H8-C5-H7=109.48                H9-C5-O4=110.46                H9-C5-H7=107.88                
H9-C5-H8=110.34                

 selected dihedral angles (degree)
 ---------------------------------
C5-O4-S1-O2=150.15            C5-O4-S1-O3=270.71            C5-O4-S1-O6= 30.72            H7-C5-O4-S1= 60.98            
H8-C5-O4-S1=180.82            H9-C5-O4-S1=301.86            
           -------------------------------------------------
          |                Final Singlepoint                |
           -------------------------------------------------

          ...................................................
          :                      SETUP                      :
          :.................................................:
          :  # basis functions                  33          :
          :  # atomic orbitals                  32          :
          :  # shells                           16          :
          :  # electrons                        38          :
          :  max. iterations                   250          :
          :  Hamiltonian                  GFN2-xTB          :
          :  restarted?                      false          :
          :  GBSA solvation                  false          :
          :  PC potential                    false          :
          :  electronic temp.          300.0000000     K    :
          :  accuracy                    1.0000000          :
          :  -> integral cutoff          0.2500000E+02      :
          :  -> integral neglect         0.1000000E-07      :
          :  -> SCF convergence          0.1000000E-05 Eh   :
          :  -> wf. convergence          0.1000000E-03 e    :
          :  Broyden damping             0.4000000          :
          ...................................................

 iter      E             dE          RMSdq      gap      omega  full diag
   1    -23.5780294 -0.235780E+02  0.418E-05    8.48       0.0  T
   2    -23.5780294 -0.326850E-12  0.273E-05    8.48    1222.1  T
   3    -23.5780294 -0.312639E-12  0.408E-06    8.48    8165.7  T

   *** convergence criteria satisfied after 3 iterations ***

         #    Occupation            Energy/Eh            Energy/eV
      -------------------------------------------------------------
         1        2.0000           -0.5690045             -15.4834
       ...           ...                  ...                  ...
        13        2.0000           -0.2749475              -7.4817
        14        2.0000           -0.2565635              -6.9814
        15        2.0000           -0.2540326              -6.9126
        16        2.0000           -0.2481989              -6.7538
        17        2.0000           -0.2389200              -6.5013
        18        2.0000           -0.2379974              -6.4762
        19        2.0000           -0.2271676              -6.1815 (HOMO)
        20                          0.0843007               2.2939 (LUMO)
        21                          0.1446938               3.9373
        22                          0.2020684               5.4986
        23                          0.2317379               6.3059
        24                          0.2716637               7.3923
       ...                                ...                  ...
        32                          1.4075162              38.3005
      -------------------------------------------------------------
                  HL-Gap            0.3114683 Eh            8.4755 eV
             Fermi-level           -0.0714334 Eh           -1.9438 eV

 SCC (total)                   0 d,  0 h,  0 min,  0.164 sec
 SCC setup                      ...        0 min,  0.004 sec (  2.664%)
 Dispersion                     ...        0 min,  0.014 sec (  8.545%)
 classical contributions        ...        0 min,  0.002 sec (  1.163%)
 integral evaluation            ...        0 min,  0.021 sec ( 13.077%)
 iterations                     ...        0 min,  0.053 sec ( 32.389%)
 molecular gradient             ...        0 min,  0.069 sec ( 42.066%)
 printout                       ...        0 min,  0.000 sec (  0.087%)

         :::::::::::::::::::::::::::::::::::::::::::::::::::::
         ::                     SUMMARY                     ::
         :::::::::::::::::::::::::::::::::::::::::::::::::::::
         :: total energy             -23.457606524311 Eh    ::
         :: gradient norm              0.000794310066 Eh/a0 ::
         :: HOMO-LUMO gap              8.475482762935 eV    ::
         ::.................................................::
         :: SCC energy               -23.578029430524 Eh    ::
         :: -> isotropic ES            0.214242562656 Eh    ::
         :: -> anisotropic ES         -0.021787809672 Eh    ::
         :: -> anisotropic XC         -0.005712429878 Eh    ::
         :: -> dispersion             -0.007045400745 Eh    ::
         :: repulsion energy           0.120413321976 Eh    ::
         :: add. restraining           0.000007595138 Eh    ::
         :: total charge              -1.000000000000 e     ::
         :::::::::::::::::::::::::::::::::::::::::::::::::::::

           -------------------------------------------------
          |                Property Printout                |
           -------------------------------------------------

    * Orbital Energies and Occupations

         #    Occupation            Energy/Eh            Energy/eV
      -------------------------------------------------------------
         1        2.0000           -0.5690045             -15.4834
       ...           ...                  ...                  ...
         7        2.0000           -0.3910134             -10.6400
         8        2.0000           -0.3880913             -10.5605
         9        2.0000           -0.3829937             -10.4218
        10        2.0000           -0.3225101              -8.7759
        11        2.0000           -0.3178505              -8.6492
        12        2.0000           -0.3140248              -8.5451
        13        2.0000           -0.2749475              -7.4817
        14        2.0000           -0.2565635              -6.9814
        15        2.0000           -0.2540326              -6.9126
        16        2.0000           -0.2481989              -6.7538
        17        2.0000           -0.2389200              -6.5013
        18        2.0000           -0.2379974              -6.4762
        19        2.0000           -0.2271676              -6.1815 (HOMO)
        20                          0.0843007               2.2939 (LUMO)
        21                          0.1446938               3.9373
        22                          0.2020684               5.4986
        23                          0.2317379               6.3059
        24                          0.2716637               7.3923
        25                          0.3083505               8.3906
        26                          0.3323433               9.0435
        27                          0.3499531               9.5227
        28                          0.4355248              11.8512
        29                          0.4490364              12.2189
        30                          0.9385697              25.5398
       ...                                ...                  ...
        32                          1.4075162              38.3005
      -------------------------------------------------------------
                  HL-Gap            0.3114683 Eh            8.4755 eV
             Fermi-level           -0.0714334 Eh           -1.9438 eV

     #   Z          covCN         q      C6AA      α(0)
     1  16 S        3.683     1.426    95.281    16.429
     2   8 O        0.860    -0.681    28.189     7.118
     3   8 O        0.860    -0.697    28.637     7.175
     4   8 O        1.706    -0.483    22.500     6.404
     5   6 C        3.873     0.069    19.387     6.261
     6   8 O        0.860    -0.707    28.890     7.206
     7   1 H        0.924     0.018     2.762     2.599
     8   1 H        0.924     0.018     2.768     2.602
     9   1 H        0.924     0.037     2.487     2.466

 Mol. C6AA /au·bohr⁶  :       1570.434031
 Mol. C8AA /au·bohr⁸  :      40482.013485
 Mol. α(0) /au        :         58.260460


Wiberg/Mayer (AO) data.
largest (>0.10) Wiberg bond orders for each atom

 ---------------------------------------------------------------------------
     #   Z sym  total        # sym  WBO       # sym  WBO       # sym  WBO
 ---------------------------------------------------------------------------
     1  16 S    5.066 --     2 O    1.445     3 O    1.420     6 O    1.410
                             4 O    0.774
     2   8 O    1.758 --     1 S    1.445     3 O    0.122     6 O    0.117
     3   8 O    1.738 --     1 S    1.420     2 O    0.122     6 O    0.120
     4   8 O    2.024 --     5 C    1.010     1 S    0.774
     5   6 C    3.958 --     4 O    1.010     8 H    0.979     7 H    0.979
                             9 H    0.974
     6   8 O    1.730 --     1 S    1.410     3 O    0.120     2 O    0.117
     7   1 H    1.000 --     5 C    0.979
     8   1 H    1.000 --     5 C    0.979
     9   1 H    0.999 --     5 C    0.974
 ---------------------------------------------------------------------------

Topologies differ in total number of bonds
Writing topology from bond orders to xtbtopo.mol

molecular dipole:
                 x           y           z       tot (Debye)
 q only:        1.384      -0.064       0.620
   full:        1.646      -0.111       0.584       4.449
molecular quadrupole (traceless):
                xx          xy          yy          xz          yz          zz
 q only:        3.078      -0.713      -1.340      -1.558      -0.061      -1.738
  q+dip:        2.612      -0.096      -1.076      -2.658       0.505      -1.537
   full:        3.345      -0.434      -1.545      -2.470       0.224      -1.800

           -------------------------------------------------
          |                Geometry Summary                 |
           -------------------------------------------------

      molecular mass/u    :      111.0969652
   center of mass at/Å    :       -0.0214969      -0.0729570      -0.3170225
  moments of inertia/u·Å² :        0.9954178E+02   0.1784335E+03   0.1795775E+03
rotational constants/cm⁻¹ :        0.1693523E+00   0.9447574E-01   0.9387384E-01

 * 7 selected distances

     #   Z          #   Z                                           value/Å
     1  16 S        2   8 O                                       1.4476465
     1  16 S        3   8 O                                       1.4509961
     4   8 O        5   6 C                                       1.3836946
     1  16 S        6   8 O                                       1.4543752 (max)
     5   6 C        7   1 H                                       1.0978121
     5   6 C        8   1 H                                       1.0959370
     5   6 C        9   1 H                                       1.0938681 (min)

 * 3 distinct bonds (by element types)

   Z      Z             #   av. dist./Å        max./Å        min./Å
   1 H    6 C           3     1.0958724     1.0978121     1.0938681
   6 C    8 O           1     1.3836946     1.3836946     1.3836946
   8 O   16 S           3     1.4510059     1.4543752     1.4476465


optimized geometry written to: xtbopt.xyz


           -------------------------------------------------
          | TOTAL ENERGY              -23.457606524311 Eh   |
          | GRADIENT NORM               0.000794310066 Eh/α |
          | HOMO-LUMO GAP               8.475482762935 eV   |
           -------------------------------------------------

------------------------------------------------------------------------
 * finished run on 2022/11/03 at 12:58:11.662     
------------------------------------------------------------------------
 total:
 * wall-time:     0 d,  0 h,  0 min,  1.865 sec
 *  cpu-time:     0 d,  0 h,  0 min, 14.712 sec
 * ratio c/w:     7.888 speedup
 SCF:
 * wall-time:     0 d,  0 h,  0 min,  0.312 sec
 *  cpu-time:     0 d,  0 h,  0 min,  2.482 sec
 * ratio c/w:     7.951 speedup
 ANC optimizer:
 * wall-time:     0 d,  0 h,  0 min,  1.500 sec
 *  cpu-time:     0 d,  0 h,  0 min, 11.832 sec
 * ratio c/w:     7.890 speedup

