9
 energy: -23.460887043021 gnorm: 0.000603570515 xtb: 6.5.1 (b24c23e)
S           -0.31351830850263        0.00846514276820        0.23419151833254
O           -0.84545429357114       -0.78406098395421       -0.86148191081871
O            0.10074845857115       -0.78551472986227        1.37873013175787
O            1.11361313703997        0.65077271818832       -0.36864260323137
C            1.91310753329648       -0.43267310393661       -0.70159394055754
O           -1.09519778398180        1.17945564384499        0.56507445895425
H            2.86849079415814       -0.06196353544206       -1.08546318773716
H            2.07477210483682       -1.05568978056499        0.18515529693564
H            1.40912335815299       -1.04358137104137       -1.45890375363553
