2022-11-03:12:59:57,46 INFO     [psi4.driver.task_planner:266] PLANNING Atomic:  keywords={'FREEZE_CORE': 'TRUE', 'function_kwargs': {}}
2022-11-03:12:59:57,53 INFO     [psi4.driver.driver:499] Compute energy(): method=wb97x-d, basis=6-311+g*, molecule=default, nre=363.5022239477157
2022-11-03:13:00:12,486 INFO     [psi4.driver.driver:502] Return energy(): -739.004055938757
igio,
    A. Alenaizan, A. M. James, S. Lehtola, J. P. Misiewicz, M. Scheurer,
    R. A. Shaw, J. B. Schriber, Y. Xie, Z. L. Glick, D. A. Sirianni,
    J. S. O'Brien, J. M. Waldrop, A. Kumar, E. G. Hohenstein,
    B. P. Pritchard, B. R. Brooks, H. F. Schaefer III, A. Yu. Sokolov,
    K. Patkowski, A. E. DePrince III, U. Bozkaya, R. A. King,
    F. A. Evangelista, J. M. Turney, T. D. Crawford, C. D. Sherrill,
    J. Chem. Phys. 152(18) 184108 (2020). https://doi.org/10.1063/5.0006002

                            Additional Code Authors
    E. T. Seidl, C. L. Janssen, E. F. Valeev, M. L. Leininger,
    J. F. Gonthier, R. M. Richard, H. R. McAlexander, M. Saitow, X. Wang,
    P. Verma, M. H. Lechner, and A. Jiang

             Previous Authors, Complete List of Code Contributors,
                       and Citations for Specific Modules
    https://github.com/psi4/psi4/blob/master/codemeta.json
    https://github.com/psi4/psi4/graphs/contributors
    http://psicode.org/psi4manual/master/introduction.html#citing-psifour

    -----------------------------------------------------------------------


    Psi4 started on: Thursday, 03 November 2022 12:59PM

    Process ID: 9305
    Host:       DESKTOP-26BCFJT
    PSIDATADIR: /home/chase/psi4conda/share/psi4
    Memory:     500.0 MiB
    Threads:    1
    
  ==> Input File <==

--------------------------------------------------------------------------
molecule { 
-1 1
 S   -0.340127    0.222522   -0.076464
 O   -0.019483    1.099078   -1.191761
 O   -0.828259   -1.081646   -0.489889
 O    1.138790   -0.096927    0.649442
 C    1.935312   -0.709714   -0.306553
 O   -1.102201    0.847920    0.981392
 H    1.798845   -1.798304   -0.286542
 H    1.657036   -0.333134   -1.294481
 H    2.985771   -0.474586   -0.098077
}
memory 1GB
set_num_threads(2)
psi4_io.set_default_path("/home/chase/temp/Psi4-mso4")
set freeze_core True
E, wfn = energy('wb97x-d/6-311+G*',return_wfn=True)
oeprop(wfn,"WIBERG_LOWDIN_INDICES")
clean()
--------------------------------------------------------------------------

  Memory set to 953.674 MiB by Python driver.
  Threads set to 2 by Python driver.

Scratch directory: /home/chase/temp/Psi4-mso4/

*** tstart() called on DESKTOP-26BCFJT
*** at Thu Nov  3 12:59:57 2022

   => Loading Basis Set <=

    Name: 6-311+G*
    Role: ORBITAL
    Keyword: BASIS
    atoms 1      entry S          line   430 file /home/chase/psi4conda/share/psi4/basis/6-311pgs.gbs 
    atoms 2-4, 6 entry O          line   172 file /home/chase/psi4conda/share/psi4/basis/6-311pgs.gbs 
    atoms 5      entry C          line   130 file /home/chase/psi4conda/share/psi4/basis/6-311pgs.gbs 
    atoms 7-9    entry H          line    47 file /home/chase/psi4conda/share/psi4/basis/6-311pgs.gbs 

   => WB97X-D: Empirical Dispersion <=

    Chai and Head-Gordon Dispersion Correction
    Chai, J.-D.; Head-Gordon, M. (2010), J. Chem. Phys., 132: 6615-6620

        s6 =       1.000000


         ---------------------------------------------------------
                                   SCF
               by Justin Turney, Rob Parrish, Andy Simmonett
                          and Daniel G. A. Smith
                              RKS Reference
                        2 Threads,    953 MiB Core
         ---------------------------------------------------------

  ==> Geometry <==

    Molecular point group: c1
    Full point group: C1

    Geometry (in Angstrom), charge = -1, multiplicity = 1:

       Center              X                  Y                   Z               Mass       
    ------------   -----------------  -----------------  -----------------  -----------------
         S           -0.392993895060     0.148069357310     0.001286566558    31.972071174400
         O           -0.072349895060     1.024625357310    -1.114010433442    15.994914619570
         O           -0.881125895060    -1.156098642690    -0.412138433442    15.994914619570
         O            1.085923104940    -0.171379642690     0.727192566558    15.994914619570
         C            1.882445104940    -0.784166642690    -0.228802433442    12.000000000000
         O           -1.155067895060     0.773467357310     1.059142566558    15.994914619570
         H            1.745978104940    -1.872756642690    -0.208791433442     1.007825032230
         H            1.604169104940    -0.407586642690    -1.216730433442     1.007825032230
         H            2.932904104940    -0.549038642690    -0.020326433442     1.007825032230

  Running in c1 symmetry.

  Rotational constants: A =      0.17000  B =      0.09602  C =      0.09517 [cm^-1]
  Rotational constants: A =   5096.43310  B =   2878.53359  C =   2853.25347 [MHz]
  Nuclear repulsion =  363.502223947715720

  Charge       = -1
  Multiplicity = 1
  Electrons    = 58
  Nalpha       = 29
  Nbeta        = 29

  ==> Algorithm <==

  SCF Algorithm Type is DF.
  DIIS enabled.
  MOM disabled.
  Fractional occupation disabled.
  Guess Type is SAD.
  Energy threshold   = 1.00e-06
  Density threshold  = 1.00e-06
  Integral threshold = 1.00e-12

  ==> Primary Basis <==

  Basis Set: 6-311+G*
    Blend: 6-311+G*
    Number of shells: 73
    Number of basis functions: 149
    Number of Cartesian functions: 155
    Spherical Harmonics?: true
    Max angular momentum: 2

  ==> DFT Potential <==

   => LibXC <=

    Version 5.1.5
    S. Lehtola, C. Steigemann, M. J. Oliveira, and M. A. Marques, SoftwareX 7, 1 (2018) (10.1016/j.softx.2017.11.002)

   => Composite Functional: WB97X-D <= 

    wB97X-D Hyb-GGA Exchange-Correlation Functional

    J.-D. Chai and M. Head-Gordon, Phys. Chem. Chem. Phys. 10, 6615 (2008) (10.1039/B810189B)

    Deriv               =              1
    GGA                 =           TRUE
    Meta                =          FALSE

    Exchange Hybrid     =           TRUE
    MP2 Hybrid          =          FALSE

   => Exchange-Correlation Functionals <=

    1.0000   wB97X-D range-separated functional

   => Exact (HF) Exchange <=

    0.7780            HF,LR [omega = 0.2000]
    0.2220               HF 

   => LibXC Density Thresholds  <==

    XC_HYB_GGA_XC_WB97X_D:  1.00E-14 

   => Molecular Quadrature <=

    Radial Scheme          =       TREUTLER
    Pruning Scheme         =           NONE
    Nuclear Scheme         =       TREUTLER

    Blocking Scheme        =         OCTREE
    BS radius alpha        =              1
    Pruning alpha          =              1
    Radial Points          =             75
    Spherical Points       =            302
    Total Points           =         194190
    Total Blocks           =           1499
    Max Points             =            256
    Max Functions          =            148
    Weights Tolerance      =       1.00E-15

   => Loading Basis Set <=

    Name: (6-311+G* AUX)
    Role: JKFIT
    Keyword: DF_BASIS_SCF
    atoms 1      entry S          line   768 file /home/chase/psi4conda/share/psi4/basis/heavy-aug-cc-pvtz-jkfit.gbs 
    atoms 2-4, 6 entry O          line   324 file /home/chase/psi4conda/share/psi4/basis/heavy-aug-cc-pvtz-jkfit.gbs 
    atoms 5      entry C          line   200 file /home/chase/psi4conda/share/psi4/basis/heavy-aug-cc-pvtz-jkfit.gbs 
    atoms 7-9    entry H          line   116 file /home/chase/psi4conda/share/psi4/basis/heavy-aug-cc-pvtz-jkfit.gbs 

  ==> Integral Setup <==

  DFHelper Memory: AOs need 0.375 GiB; user supplied 0.375 GiB. Using in-core AOs.

  ==> MemDFJK: Density-Fitted J/K Matrices <==

    J tasked:                   Yes
    K tasked:                   Yes
    wK tasked:                  Yes
    Omega:                2.000E-01
    OpenMP threads:               2
    Memory [MiB]:               383
    Algorithm:                 Core
    Schwarz Cutoff:           1E-12
    Mask sparsity (%):       2.5044
    Fitting Condition:        1E-10

   => Auxiliary Basis Set <=

  Basis Set: (6-311+G* AUX)
    Blend: HEAVY-AUG-CC-PVTZ-JKFIT
    Number of shells: 222
    Number of basis functions: 756
    Number of Cartesian functions: 940
    Spherical Harmonics?: true
    Max angular momentum: 4

  Cached 50.0% of DFT collocation blocks in 0.310 [GiB].

  Minimum eigenvalue in the overlap matrix is 3.5924524990E-04.
  Reciprocal condition number of the overlap matrix is 3.6673108203E-05.
    Using symmetric orthogonalization.

  ==> Pre-Iterations <==

  SCF Guess: Superposition of Atomic Densities via on-the-fly atomic UHF (no occupation information).

   -------------------------
    Irrep   Nso     Nmo    
   -------------------------
     A        149     149 
   -------------------------
    Total     149     149
   -------------------------

  ==> Iterations <==

                           Total Energy        Delta E     RMS |[F,P]|

   @DF-RKS iter SAD:  -738.96107071173367   -7.38961e+02   0.00000e+00 
   @DF-RKS iter   1:  -738.52599479928244    4.35076e-01   7.82552e-03 ADIIS/DIIS
   @DF-RKS iter   2:  -738.45388714657940    7.21077e-02   8.80145e-03 ADIIS/DIIS
   @DF-RKS iter   3:  -738.99949592305359   -5.45609e-01   7.93489e-04 ADIIS/DIIS
   @DF-RKS iter   4:  -739.00342769012616   -3.93177e-03   2.72780e-04 ADIIS/DIIS
   @DF-RKS iter   5:  -739.00395769042802   -5.30000e-04   1.12958e-04 ADIIS/DIIS
   @DF-RKS iter   6:  -739.00405008776170   -9.23973e-05   2.45312e-05 DIIS
   @DF-RKS iter   7:  -739.00405566130348   -5.57354e-06   4.62668e-06 DIIS
   @DF-RKS iter   8:  -739.00405590502305   -2.43720e-07   1.94192e-06 DIIS
   @DF-RKS iter   9:  -739.00405593875701   -3.37340e-08   8.23133e-07 DIIS
  Energy and wave function converged.


  ==> Post-Iterations <==

   Electrons on quadrature grid:
      Ntotal   =   58.0000109020 ; deviation = 1.090e-05 

    Orbital Energies [Eh]
    ---------------------

    Doubly Occupied:                                                      

       1A    -89.062162     2A    -19.111514     3A    -19.044498  
       4A    -19.043679     5A    -19.043543     6A    -10.179735  
       7A     -8.074388     8A     -6.023677     9A     -6.021436  
      10A     -6.021268    11A     -1.087121    12A     -0.974116  
      13A     -0.919838    14A     -0.917736    15A     -0.647067  
      16A     -0.519057    17A     -0.440931    18A     -0.413519  
      19A     -0.407171    20A     -0.373160    21A     -0.354090  
      22A     -0.315160    23A     -0.257496    24A     -0.254734  
      25A     -0.243208    26A     -0.237841    27A     -0.208486  
      28A     -0.192675    29A     -0.166819  

    Virtual:                                                              

      30A      0.181453    31A      0.215950    32A      0.224229  
      33A      0.228754    34A      0.256131    35A      0.257823  
      36A      0.259961    37A      0.302114    38A      0.327315  
      39A      0.354321    40A      0.369849    41A      0.376504  
      42A      0.383019    43A      0.401948    44A      0.419998  
      45A      0.429421    46A      0.441191    47A      0.444452  
      48A      0.464832    49A      0.480159    50A      0.488293  
      51A      0.490374    52A      0.498350    53A      0.507014  
      54A      0.517171    55A      0.519447    56A      0.525372  
      57A      0.532706    58A      0.551225    59A      0.566039  
      60A      0.597537    61A      0.620090    62A      0.632785  
      63A      0.645569    64A      0.673521    65A      0.713393  
      66A      0.741446    67A      0.773196    68A      0.852850  
      69A      0.870803    70A      0.908444    71A      0.953839  
      72A      0.987140    73A      1.077565    74A      1.191895  
      75A      1.229215    76A      1.240248    77A      1.267667  
      78A      1.296010    79A      1.336733    80A      1.355041  
      81A      1.373874    82A      1.395103    83A      1.401111  
      84A      1.409084    85A      1.417537    86A      1.440202  
      87A      1.478806    88A      1.489866    89A      1.519046  
      90A      1.589509    91A      1.617684    92A      1.787116  
      93A      1.803794    94A      1.835524    95A      1.847014  
      96A      1.906738    97A      1.996347    98A      2.049822  
      99A      2.075399   100A      2.090684   101A      2.169741  
     102A      2.660865   103A      2.675072   104A      2.736436  
     105A      3.032861   106A      3.044418   107A      3.092511  
     108A      3.093890   109A      3.102747   110A      3.110957  
     111A      3.122085   112A      3.131522   113A      3.141225  
     114A      3.163160   115A      3.259809   116A      3.287205  
     117A      3.296162   118A      3.352421   119A      3.440451  
     120A      3.453817   121A      3.465443   122A      3.492673  
     123A      3.552881   124A      3.744017   125A      3.891231  
     126A      3.893954   127A      4.168129   128A      5.236184  
     129A      5.257114   130A      5.297261   131A      5.302080  
     132A      5.320277   133A      5.325535   134A      5.338057  
     135A      5.341285   136A      5.438769   137A      5.593626  
     138A      5.620459   139A      5.699614   140A      8.452397  
     141A     17.609154   142A     17.739120   143A     17.777582  
     144A     23.830829   145A     50.169769   146A     50.196491  
     147A     50.197628   148A     50.264460   149A    189.620358  

    Final Occupation by Irrep:
              A 
    DOCC [    29 ]

  @DF-RKS Final Energy:  -739.00405593875701

   => Energetics <=

    Nuclear Repulsion Energy =            363.5022239477157200
    One-Electron Energy =               -1751.2747534087429813
    Two-Electron Energy =                 696.4819176915590333
    DFT Exchange-Correlation Energy =     -47.7112215357144578
    Empirical Dispersion Energy =          -0.0022226335742335
    VV10 Nonlocal Energy =                  0.0000000000000000
    Total Energy =                       -739.0040559387568919

Computation Completed


Properties will be evaluated at   0.000000,   0.000000,   0.000000 [a0]

Properties computed using the SCF density matrix


 Multipole Moments:

 ------------------------------------------------------------------------------------
     Multipole            Electronic (a.u.)      Nuclear  (a.u.)        Total (a.u.)
 ------------------------------------------------------------------------------------

 L = 1.  Multiply by 2.5417464519 to convert [e a0] to [Debye]
 Dipole X            :         -4.5290896            5.8748845            1.3457948
 Dipole Y            :          2.1180348           -2.6462905           -0.5282557
 Dipole Z            :          1.1976963           -1.3541545           -0.1564582
 Magnitude           :                                                    1.4541998

 ------------------------------------------------------------------------------------

*** tstop() called on DESKTOP-26BCFJT at Thu Nov  3 13:00:12 2022
Module time:
	user time   =      29.27 seconds =       0.49 minutes
	system time =       0.84 seconds =       0.01 minutes
	total time  =         15 seconds =       0.25 minutes
Total time:
	user time   =      29.27 seconds =       0.49 minutes
	system time =       0.84 seconds =       0.01 minutes
	total time  =         15 seconds =       0.25 minutes


Properties will be evaluated at   0.000000,   0.000000,   0.000000 [a0]
OEProp: No title given, name of density matrix used for the following properties is 'SCF density'


  Wiberg Bond Indices using Orthogonal Lowdin Orbitals:

  Irrep: 1 Size: 9 x 9

                 1                   2                   3                   4                   5

    1     0.00000000000000     1.75706512919838     1.76655276807476     0.95347379292365     0.10955807324841
    2     1.75706512919838     0.00000000000000     0.19554093955554     0.15295899730841     0.08039409480037
    3     1.76655276807476     0.19554093955554     0.00000000000000     0.15694765503910     0.07377512530064
    4     0.95347379292365     0.15295899730841     0.15694765503910     0.00000000000000     1.37396373178421
    5     0.10955807324841     0.08039409480037     0.07377512530064     1.37396373178421     0.00000000000000
    6     1.80940732116607     0.18838378566176     0.18839842122024     0.15964376366404     0.02952405950595
    7     0.01306843321883     0.00133669356225     0.00853330895150     0.06194440901792     0.90155158899786
    8     0.03145394965136     0.02721212634670     0.00896070180745     0.05024843241171     0.86933226519518
    9     0.01317761124427     0.00112579284783     0.00298321216562     0.06004291647066     0.90715682993803

                 6                   7                   8                   9

    1     1.80940732116607     0.01306843321883     0.03145394965136     0.01317761124427
    2     0.18838378566176     0.00133669356225     0.02721212634670     0.00112579284783
    3     0.18839842122024     0.00853330895150     0.00896070180745     0.00298321216562
    4     0.15964376366404     0.06194440901792     0.05024843241171     0.06004291647066
    5     0.02952405950595     0.90155158899786     0.86933226519518     0.90715682993803
    6     0.00000000000000     0.00108661767649     0.00187424446004     0.00232853409641
    7     0.00108661767649     0.00000000000000     0.00791579481426     0.00906428647884
    8     0.00187424446004     0.00791579481426     0.00000000000000     0.00998852752821
    9     0.00232853409641     0.00906428647884     0.00998852752821     0.00000000000000



  Atomic Valences: 

 #  #
 Irrep: 1
      1:    6.453757078725740
      2:    2.404017559281229
      3:    2.401692132114846
      4:    2.969223698619692
      5:    4.345255768770643
      6:    2.380646747451002
      7:    1.004501132717954
      8:    1.006986042214909
      9:    1.005867710769869


    Psi4 stopped on: Thursday, 03 November 2022 01:00PM
    Psi4 wall time for execution: 0:00:15.53

*** Psi4 exiting successfully. Buy a developer a beer!
