2022-11-03:12:59:40,166 INFO     [psi4.driver.task_planner:266] PLANNING Atomic:  keywords={'FREEZE_CORE': 'TRUE', 'function_kwargs': {}}
2022-11-03:12:59:40,172 INFO     [psi4.driver.driver:499] Compute energy(): method=wb97x-d, basis=6-311+g*, molecule=default, nre=363.5610923289905
2022-11-03:12:59:54,702 INFO     [psi4.driver.driver:502] Return energy(): -739.0039544125538
o,
    A. Alenaizan, A. M. James, S. Lehtola, J. P. Misiewicz, M. Scheurer,
    R. A. Shaw, J. B. Schriber, Y. Xie, Z. L. Glick, D. A. Sirianni,
    J. S. O'Brien, J. M. Waldrop, A. Kumar, E. G. Hohenstein,
    B. P. Pritchard, B. R. Brooks, H. F. Schaefer III, A. Yu. Sokolov,
    K. Patkowski, A. E. DePrince III, U. Bozkaya, R. A. King,
    F. A. Evangelista, J. M. Turney, T. D. Crawford, C. D. Sherrill,
    J. Chem. Phys. 152(18) 184108 (2020). https://doi.org/10.1063/5.0006002

                            Additional Code Authors
    E. T. Seidl, C. L. Janssen, E. F. Valeev, M. L. Leininger,
    J. F. Gonthier, R. M. Richard, H. R. McAlexander, M. Saitow, X. Wang,
    P. Verma, M. H. Lechner, and A. Jiang

             Previous Authors, Complete List of Code Contributors,
                       and Citations for Specific Modules
    https://github.com/psi4/psi4/blob/master/codemeta.json
    https://github.com/psi4/psi4/graphs/contributors
    http://psicode.org/psi4manual/master/introduction.html#citing-psifour

    -----------------------------------------------------------------------


    Psi4 started on: Thursday, 03 November 2022 12:59PM

    Process ID: 9290
    Host:       DESKTOP-26BCFJT
    PSIDATADIR: /home/chase/psi4conda/share/psi4
    Memory:     500.0 MiB
    Threads:    1
    
  ==> Input File <==

--------------------------------------------------------------------------
molecule { 
-1 1
 S   -0.369149    0.081605    0.028451
 O   -0.534542    0.264966   -1.404757
 O   -0.553443   -1.293453    0.458847
 O    1.255450    0.391731    0.310518
 C    1.978283   -0.525865   -0.437810
 O   -1.043034    1.067781    0.843406
 H    1.411451   -0.768861   -1.341137
 H    2.948168   -0.090434   -0.700987
 H    2.132500   -1.452262    0.130533
}
memory 1GB
set_num_threads(2)
psi4_io.set_default_path("/home/chase/temp/Psi4-mso4")
set freeze_core True
E, wfn = energy('wb97x-d/6-311+G*',return_wfn=True)
oeprop(wfn,"WIBERG_LOWDIN_INDICES")
clean()
--------------------------------------------------------------------------

  Memory set to 953.674 MiB by Python driver.
  Threads set to 2 by Python driver.

Scratch directory: /home/chase/temp/Psi4-mso4/

*** tstart() called on DESKTOP-26BCFJT
*** at Thu Nov  3 12:59:40 2022

   => Loading Basis Set <=

    Name: 6-311+G*
    Role: ORBITAL
    Keyword: BASIS
    atoms 1      entry S          line   430 file /home/chase/psi4conda/share/psi4/basis/6-311pgs.gbs 
    atoms 2-4, 6 entry O          line   172 file /home/chase/psi4conda/share/psi4/basis/6-311pgs.gbs 
    atoms 5      entry C          line   130 file /home/chase/psi4conda/share/psi4/basis/6-311pgs.gbs 
    atoms 7-9    entry H          line    47 file /home/chase/psi4conda/share/psi4/basis/6-311pgs.gbs 

   => WB97X-D: Empirical Dispersion <=

    Chai and Head-Gordon Dispersion Correction
    Chai, J.-D.; Head-Gordon, M. (2010), J. Chem. Phys., 132: 6615-6620

        s6 =       1.000000


         ---------------------------------------------------------
                                   SCF
               by Justin Turney, Rob Parrish, Andy Simmonett
                          and Daniel G. A. Smith
                              RKS Reference
                        2 Threads,    953 MiB Core
         ---------------------------------------------------------

  ==> Geometry <==

    Molecular point group: c1
    Full point group: C1

    Geometry (in Angstrom), charge = -1, multiplicity = 1:

       Center              X                  Y                   Z               Mass       
    ------------   -----------------  -----------------  -----------------  -----------------
         S           -0.409475184124     0.073826109787     0.054974633826    31.972071174400
         O           -0.574868184124     0.257187109787    -1.378233366174    15.994914619570
         O           -0.593769184124    -1.301231890213     0.485370633826    15.994914619570
         O            1.215123815876     0.383952109787     0.337041633826    15.994914619570
         C            1.937956815876    -0.533643890213    -0.411286366174    12.000000000000
         O           -1.083360184124     1.060002109787     0.869929633826    15.994914619570
         H            1.371124815876    -0.776639890213    -1.314613366174     1.007825032230
         H            2.907841815876    -0.098212890213    -0.674463366174     1.007825032230
         H            2.092173815876    -1.460040890213     0.157056633826     1.007825032230

  Running in c1 symmetry.

  Rotational constants: A =      0.17002  B =      0.09607  C =      0.09522 [cm^-1]
  Rotational constants: A =   5097.01838  B =   2880.22377  C =   2854.76114 [MHz]
  Nuclear repulsion =  363.561092328990526

  Charge       = -1
  Multiplicity = 1
  Electrons    = 58
  Nalpha       = 29
  Nbeta        = 29

  ==> Algorithm <==

  SCF Algorithm Type is DF.
  DIIS enabled.
  MOM disabled.
  Fractional occupation disabled.
  Guess Type is SAD.
  Energy threshold   = 1.00e-06
  Density threshold  = 1.00e-06
  Integral threshold = 1.00e-12

  ==> Primary Basis <==

  Basis Set: 6-311+G*
    Blend: 6-311+G*
    Number of shells: 73
    Number of basis functions: 149
    Number of Cartesian functions: 155
    Spherical Harmonics?: true
    Max angular momentum: 2

  ==> DFT Potential <==

   => LibXC <=

    Version 5.1.5
    S. Lehtola, C. Steigemann, M. J. Oliveira, and M. A. Marques, SoftwareX 7, 1 (2018) (10.1016/j.softx.2017.11.002)

   => Composite Functional: WB97X-D <= 

    wB97X-D Hyb-GGA Exchange-Correlation Functional

    J.-D. Chai and M. Head-Gordon, Phys. Chem. Chem. Phys. 10, 6615 (2008) (10.1039/B810189B)

    Deriv               =              1
    GGA                 =           TRUE
    Meta                =          FALSE

    Exchange Hybrid     =           TRUE
    MP2 Hybrid          =          FALSE

   => Exchange-Correlation Functionals <=

    1.0000   wB97X-D range-separated functional

   => Exact (HF) Exchange <=

    0.7780            HF,LR [omega = 0.2000]
    0.2220               HF 

   => LibXC Density Thresholds  <==

    XC_HYB_GGA_XC_WB97X_D:  1.00E-14 

   => Molecular Quadrature <=

    Radial Scheme          =       TREUTLER
    Pruning Scheme         =           NONE
    Nuclear Scheme         =       TREUTLER

    Blocking Scheme        =         OCTREE
    BS radius alpha        =              1
    Pruning alpha          =              1
    Radial Points          =             75
    Spherical Points       =            302
    Total Points           =         194184
    Total Blocks           =           1487
    Max Points             =            256
    Max Functions          =            148
    Weights Tolerance      =       1.00E-15

   => Loading Basis Set <=

    Name: (6-311+G* AUX)
    Role: JKFIT
    Keyword: DF_BASIS_SCF
    atoms 1      entry S          line   768 file /home/chase/psi4conda/share/psi4/basis/heavy-aug-cc-pvtz-jkfit.gbs 
    atoms 2-4, 6 entry O          line   324 file /home/chase/psi4conda/share/psi4/basis/heavy-aug-cc-pvtz-jkfit.gbs 
    atoms 5      entry C          line   200 file /home/chase/psi4conda/share/psi4/basis/heavy-aug-cc-pvtz-jkfit.gbs 
    atoms 7-9    entry H          line   116 file /home/chase/psi4conda/share/psi4/basis/heavy-aug-cc-pvtz-jkfit.gbs 

  ==> Integral Setup <==

  DFHelper Memory: AOs need 0.374 GiB; user supplied 0.374 GiB. Using in-core AOs.

  ==> MemDFJK: Density-Fitted J/K Matrices <==

    J tasked:                   Yes
    K tasked:                   Yes
    wK tasked:                  Yes
    Omega:                2.000E-01
    OpenMP threads:               2
    Memory [MiB]:               383
    Algorithm:                 Core
    Schwarz Cutoff:           1E-12
    Mask sparsity (%):       2.6395
    Fitting Condition:        1E-10

   => Auxiliary Basis Set <=

  Basis Set: (6-311+G* AUX)
    Blend: HEAVY-AUG-CC-PVTZ-JKFIT
    Number of shells: 222
    Number of basis functions: 756
    Number of Cartesian functions: 940
    Spherical Harmonics?: true
    Max angular momentum: 4

  Cached 50.0% of DFT collocation blocks in 0.300 [GiB].

  Minimum eigenvalue in the overlap matrix is 3.5810502028E-04.
  Reciprocal condition number of the overlap matrix is 3.6527508597E-05.
    Using symmetric orthogonalization.

  ==> Pre-Iterations <==

  SCF Guess: Superposition of Atomic Densities via on-the-fly atomic UHF (no occupation information).

   -------------------------
    Irrep   Nso     Nmo    
   -------------------------
     A        149     149 
   -------------------------
    Total     149     149
   -------------------------

  ==> Iterations <==

                           Total Energy        Delta E     RMS |[F,P]|

   @DF-RKS iter SAD:  -738.96278729058452   -7.38963e+02   0.00000e+00 
   @DF-RKS iter   1:  -738.52610268059289    4.36685e-01   7.82441e-03 ADIIS/DIIS
   @DF-RKS iter   2:  -738.45406366593772    7.20390e-02   8.79961e-03 ADIIS/DIIS
   @DF-RKS iter   3:  -738.99939696395109   -5.45333e-01   7.93289e-04 ADIIS/DIIS
   @DF-RKS iter   4:  -739.00332689197853   -3.92993e-03   2.72622e-04 ADIIS/DIIS
   @DF-RKS iter   5:  -739.00385621630210   -5.29324e-04   1.12943e-04 ADIIS/DIIS
   @DF-RKS iter   6:  -739.00394858366678   -9.23674e-05   2.44865e-05 DIIS
   @DF-RKS iter   7:  -739.00395413650199   -5.55284e-06   4.61378e-06 DIIS
   @DF-RKS iter   8:  -739.00395437960424   -2.43102e-07   1.90922e-06 DIIS
   @DF-RKS iter   9:  -739.00395441255375   -3.29495e-08   8.07305e-07 DIIS
  Energy and wave function converged.


  ==> Post-Iterations <==

   Electrons on quadrature grid:
      Ntotal   =   58.0000140325 ; deviation = 1.403e-05 

    Orbital Energies [Eh]
    ---------------------

    Doubly Occupied:                                                      

       1A    -89.062177     2A    -19.111514     3A    -19.044473  
       4A    -19.043685     5A    -19.043548     6A    -10.179543  
       7A     -8.074403     8A     -6.023694     9A     -6.021452  
      10A     -6.021283    11A     -1.087189    12A     -0.974085  
      13A     -0.919856    14A     -0.917760    15A     -0.646983  
      16A     -0.519181    17A     -0.441047    18A     -0.413432  
      19A     -0.406941    20A     -0.373090    21A     -0.354194  
      22A     -0.315424    23A     -0.257505    24A     -0.254692  
      25A     -0.243066    26A     -0.237631    27A     -0.208498  
      28A     -0.192774    29A     -0.166807  

    Virtual:                                                              

      30A      0.181463    31A      0.215974    32A      0.224221  
      33A      0.228700    34A      0.256092    35A      0.257872  
      36A      0.259957    37A      0.302039    38A      0.327416  
      39A      0.354486    40A      0.369613    41A      0.376398  
      42A      0.383003    43A      0.402275    44A      0.420363  
      45A      0.429497    46A      0.441463    47A      0.444443  
      48A      0.464992    49A      0.479951    50A      0.488126  
      51A      0.490306    52A      0.498213    53A      0.507140  
      54A      0.517131    55A      0.519414    56A      0.525337  
      57A      0.532721    58A      0.551240    59A      0.566525  
      60A      0.597904    61A      0.620135    62A      0.631895  
      63A      0.645565    64A      0.672782    65A      0.713260  
      66A      0.741173    67A      0.774628    68A      0.852777  
      69A      0.871072    70A      0.909498    71A      0.953865  
      72A      0.988318    73A      1.077804    74A      1.192244  
      75A      1.229224    76A      1.240683    77A      1.267527  
      78A      1.296007    79A      1.336708    80A      1.354599  
      81A      1.374029    82A      1.395134    83A      1.401110  
      84A      1.409203    85A      1.417842    86A      1.440007  
      87A      1.478845    88A      1.489671    89A      1.519798  
      90A      1.590156    91A      1.617756    92A      1.786357  
      93A      1.803110    94A      1.835781    95A      1.847043  
      96A      1.905963    97A      1.996203    98A      2.049969  
      99A      2.075314   100A      2.090922   101A      2.169761  
     102A      2.660021   103A      2.677592   104A      2.736910  
     105A      3.032906   106A      3.044325   107A      3.092444  
     108A      3.093883   109A      3.102884   110A      3.111023  
     111A      3.122203   112A      3.131395   113A      3.141553  
     114A      3.162972   115A      3.258076   116A      3.287409  
     117A      3.297234   118A      3.352898   119A      3.440424  
     120A      3.453875   121A      3.465739   122A      3.494091  
     123A      3.552668   124A      3.744118   125A      3.891343  
     126A      3.893887   127A      4.168122   128A      5.236040  
     129A      5.257521   130A      5.297142   131A      5.302077  
     132A      5.320151   133A      5.325541   134A      5.338092  
     135A      5.341344   136A      5.438830   137A      5.593613  
     138A      5.620545   139A      5.699382   140A      8.452715  
     141A     17.609175   142A     17.739095   143A     17.777935  
     144A     23.831272   145A     50.169781   146A     50.196496  
     147A     50.197717   148A     50.264487   149A    189.620811  

    Final Occupation by Irrep:
              A 
    DOCC [    29 ]

  @DF-RKS Final Energy:  -739.00395441255375

   => Energetics <=

    Nuclear Repulsion Energy =            363.5610923289905259
    One-Electron Energy =               -1751.3924969699564826
    Two-Electron Energy =                 696.5411733573318998
    DFT Exchange-Correlation Energy =     -47.7115025926681255
    Empirical Dispersion Energy =          -0.0022205362515042
    VV10 Nonlocal Energy =                  0.0000000000000000
    Total Energy =                       -739.0039544125536395

Computation Completed


Properties will be evaluated at   0.000000,   0.000000,   0.000000 [a0]

Properties computed using the SCF density matrix


 Multipole Moments:

 ------------------------------------------------------------------------------------
     Multipole            Electronic (a.u.)      Nuclear  (a.u.)        Total (a.u.)
 ------------------------------------------------------------------------------------

 L = 1.  Multiply by 2.5417464519 to convert [e a0] to [Debye]
 Dipole X            :         -4.5792349            5.9569619            1.3777270
 Dipole Y            :          1.8338107           -2.1850218           -0.3512111
 Dipole Z            :          1.4108844           -1.7145029           -0.3036185
 Magnitude           :                                                    1.4538450

 ------------------------------------------------------------------------------------

*** tstop() called on DESKTOP-26BCFJT at Thu Nov  3 12:59:54 2022
Module time:
	user time   =      27.67 seconds =       0.46 minutes
	system time =       0.84 seconds =       0.01 minutes
	total time  =         14 seconds =       0.23 minutes
Total time:
	user time   =      27.67 seconds =       0.46 minutes
	system time =       0.84 seconds =       0.01 minutes
	total time  =         14 seconds =       0.23 minutes


Properties will be evaluated at   0.000000,   0.000000,   0.000000 [a0]
OEProp: No title given, name of density matrix used for the following properties is 'SCF density'


  Wiberg Bond Indices using Orthogonal Lowdin Orbitals:

  Irrep: 1 Size: 9 x 9

                 1                   2                   3                   4                   5

    1     0.00000000000000     1.75701607615003     1.76624795837423     0.95390593124175     0.10965202994850
    2     1.75701607615003     0.00000000000000     0.19555189743530     0.15288253195379     0.08055214113656
    3     1.76624795837423     0.19555189743530     0.00000000000000     0.15687072016223     0.07409333270494
    4     0.95390593124175     0.15288253195379     0.15687072016223     0.00000000000000     1.37342108562610
    5     0.10965202994850     0.08055214113656     0.07409333270494     1.37342108562610     0.00000000000000
    6     1.80953749646666     0.18839437435617     0.18835099386489     0.15961356846356     0.02955775585523
    7     0.03135845484310     0.02736821539445     0.00891901646804     0.05032519945656     0.86941920359321
    8     0.01321349390814     0.00111870819101     0.00296583414887     0.06000650620917     0.90697195741582
    9     0.01324517964163     0.00137014641151     0.00884907931124     0.06187218273395     0.90117150697434

                 6                   7                   8                   9

    1     1.80953749646666     0.03135845484310     0.01321349390814     0.01324517964163
    2     0.18839437435617     0.02736821539445     0.00111870819101     0.00137014641151
    3     0.18835099386489     0.00891901646804     0.00296583414887     0.00884907931124
    4     0.15961356846356     0.05032519945656     0.06000650620917     0.06187218273395
    5     0.02955775585523     0.86941920359321     0.90697195741582     0.90117150697434
    6     0.00000000000000     0.00187279779165     0.00233955765215     0.00109084096607
    7     0.00187279779165     0.00000000000000     0.01002625788955     0.00782743730973
    8     0.00233955765215     0.01002625788955     0.00000000000000     0.00912448833834
    9     0.00109084096607     0.00782743730973     0.00912448833834     0.00000000000000



  Atomic Valences: 

 #  #
 Irrep: 1
      1:    6.454176620574037
      2:    2.404254091028817
      3:    2.401848832469727
      4:    2.968897725847105
      5:    4.344839013254697
      6:    2.380757385416385
      7:    1.007116582746291
      8:    1.005766803753039
      9:    1.004550861686816


    Psi4 stopped on: Thursday, 03 November 2022 12:59PM
    Psi4 wall time for execution: 0:00:14.64

*** Psi4 exiting successfully. Buy a developer a beer!
