9
 energy: -23.460885819418 gnorm: 0.000198031954 xtb: 6.5.1 (b24c23e)
S           -0.39985934682808        0.04254311860675       -0.23653017065594
O           -1.27500654036045        0.99332384868666       -0.88590309722629
O           -0.63441703155931       -1.34433132141800       -0.60254376424093
O            1.10672234909961        0.39711478562898       -0.88215359049155
C            1.99613243317175       -0.48930912056359       -0.29292475941315
O           -0.23987337378955        0.24673548224618        1.19373171272668
H            1.71107039600032       -1.51793562701789       -0.54080523109501
H            3.00399366400291       -0.27472057434339       -0.66210345659435
H            1.95692445026280       -0.37821559182570        0.79629836699055
