      -----------------------------------------------------------      
     |                   =====================                   |     
     |                           x T B                           |     
     |                   =====================                   |     
     |                         S. Grimme                         |     
     |          Mulliken Center for Theoretical Chemistry        |     
     |                    University of Bonn                     |     
      -----------------------------------------------------------      

   * xtb version 6.5.1 (b24c23e) compiled by 'conda@728c89f4b128' on 2022-07-12

   xtb is free software: you can redistribute it and/or modify it under
   the terms of the GNU Lesser General Public License as published by
   the Free Software Foundation, either version 3 of the License, or
   (at your option) any later version.
   
   xtb is distributed in the hope that it will be useful,
   but WITHOUT ANY WARRANTY; without even the implied warranty of
   MERCHANTABILITY or FITNESS FOR A PARTICULAR PURPOSE.  See the
   GNU Lesser General Public License for more details.
   
   Cite this work as:
   * C. Bannwarth, E. Caldeweyher, S. Ehlert, A. Hansen, P. Pracht,
     J. Seibert, S. Spicher, S. Grimme, WIREs Comput. Mol. Sci., 2020, 11,
     e01493. DOI: 10.1002/wcms.1493
   
   for GFN2-xTB:
   * C. Bannwarth, S. Ehlert and S. Grimme., J. Chem. Theory Comput., 2019,
     15, 1652-1671. DOI: 10.1021/acs.jctc.8b01176
   for GFN1-xTB:
   * S. Grimme, C. Bannwarth, P. Shushkov, J. Chem. Theory Comput., 2017,
     13, 1989-2009. DOI: 10.1021/acs.jctc.7b00118
   for GFN0-xTB:
   * P. Pracht, E. Caldeweyher, S. Ehlert, S. Grimme, ChemRxiv, 2019, preprint.
     DOI: 10.26434/chemrxiv.8326202.v1
   for GFN-FF:
   * S. Spicher and S. Grimme, Angew. Chem. Int. Ed., 2020, 59, 15665-15673.
     DOI: 10.1002/anie.202004239
   
   for ALPB and GBSA implicit solvation:
   * S. Ehlert, M. Stahn, S. Spicher, S. Grimme, J. Chem. Theory Comput.,
     2021, 17, 4250-4261. DOI: 10.1021/acs.jctc.1c00471
   
   for DFT-D4:
   * E. Caldeweyher, C. Bannwarth and S. Grimme, J. Chem. Phys., 2017,
     147, 034112. DOI: 10.1063/1.4993215
   * E. Caldeweyher, S. Ehlert, A. Hansen, H. Neugebauer, S. Spicher,
     C. Bannwarth and S. Grimme, J. Chem. Phys., 2019, 150, 154122.
     DOI: 10.1063/1.5090222
   * E. Caldeweyher, J.-M. Mewes, S. Ehlert and S. Grimme, Phys. Chem. Chem. Phys.
     2020, 22, 8499-8512. DOI: 10.1039/D0CP00502A
   
   for sTDA-xTB:
   * S. Grimme and C. Bannwarth, J. Chem. Phys., 2016, 145, 054103.
     DOI: 10.1063/1.4959605
   
   in the mass-spec context:
   * V. Asgeirsson, C. Bauer and S. Grimme, Chem. Sci., 2017, 8, 4879.
     DOI: 10.1039/c7sc00601b
   * J. Koopman and S. Grimme, ACS Omega 2019, 4, 12, 15120-15133.
     DOI: 10.1021/acsomega.9b02011
   
   for metadynamics refer to:
   * S. Grimme, J. Chem. Theory Comput., 2019, 155, 2847-2862
     DOI: 10.1021/acs.jctc.9b00143
   
   for SPH calculations refer to:
   * S. Spicher and S. Grimme, J. Chem. Theory Comput., 2021, 17, 1701-1714
     DOI: 10.1021/acs.jctc.0c01306
   
   with help from (in alphabetical order)
   P. Atkinson, C. Bannwarth, F. Bohle, G. Brandenburg, E. Caldeweyher
   M. Checinski, S. Dohm, S. Ehlert, S. Ehrlich, I. Gerasimov, C. Hölzer
   A. Katbashev, J. Koopman, C. Lavigne, S. Lehtola, F. März, M. Müller,
   F. Musil, H. Neugebauer, J. Pisarek, C. Plett, P. Pracht, F. Pultar,
   J. Seibert, P. Shushkov, S. Spicher, M. Stahn, M. Steiner, T. Strunk,
   J. Stückrath, T. Rose, and J. Unsleber
   
 * started run on 2022/11/03 at 12:55:01.601     

           -------------------------------------------------
          |                Calculation Setup                |
           -------------------------------------------------

          program call               : /home/chase/psi4conda/envs/xtbenv/bin/xtb --gfn 2 --chrg -1 --uhf 0 mso4-opt-1-4-330_preQMOPTprefit_xyzformat.xyz --opt --input xtb-opt-1-4-330_constr.txt
          coordinate file            : mso4-opt-1-4-330_preQMOPTprefit_xyzformat.xyz
          omp threads                :                     8

   ID    Z sym.   atoms
    1   16 S      1
    2    8 O      2-4, 6
    3    6 C      5
    4    1 H      7-9
constraining angle 2 1 4 5 to  329.9531986°, actual value:  -30.0468014°
constraining angle 1 4 5 7 to   61.0064637°, actual value:   61.0064637°

           -------------------------------------------------
          |                 G F N 2 - x T B                 |
           -------------------------------------------------

        Reference                      10.1021/acs.jctc.8b01176
      * Hamiltonian:
        H0-scaling (s, p, d)           1.850000    2.230000    2.230000
        zeta-weighting                 0.500000
      * Dispersion:
        s8                             2.700000
        a1                             0.520000
        a2                             5.000000
        s9                             5.000000
      * Repulsion:
        kExp                           1.500000    1.000000
        rExp                           1.000000
      * Coulomb:
        alpha                          2.000000
        third order                    shell-resolved
        anisotropic                    true
        a3                             3.000000
        a5                             4.000000
        cn-shift                       1.200000
        cn-exp                         4.000000
        max-rad                        5.000000

q/qsh data taken from xtbrestart
CAMM data taken from xtbrestart

          ...................................................
          :                      SETUP                      :
          :.................................................:
          :  # basis functions                  33          :
          :  # atomic orbitals                  32          :
          :  # shells                           16          :
          :  # electrons                        38          :
          :  max. iterations                   250          :
          :  Hamiltonian                  GFN2-xTB          :
          :  restarted?                       true          :
          :  GBSA solvation                  false          :
          :  PC potential                    false          :
          :  electronic temp.          300.0000000     K    :
          :  accuracy                    1.0000000          :
          :  -> integral cutoff          0.2500000E+02      :
          :  -> integral neglect         0.1000000E-07      :
          :  -> SCF convergence          0.1000000E-05 Eh   :
          :  -> wf. convergence          0.1000000E-03 e    :
          :  Broyden damping             0.4000000          :
          ...................................................

 iter      E             dE          RMSdq      gap      omega  full diag
   1    -23.5594275 -0.235594E+02  0.113E+00    7.50       0.0  T
   2    -23.5597558 -0.328317E-03  0.682E-01    7.55       1.0  T
   3    -23.5597920 -0.361880E-04  0.163E-01    7.57       1.0  T
   4    -23.5597954 -0.338314E-05  0.382E-02    7.57       1.0  T
   5    -23.5597958 -0.434769E-06  0.984E-03    7.56       3.4  T
   6    -23.5597959 -0.531636E-07  0.387E-03    7.56       8.6  T
   7    -23.5597959 -0.137685E-07  0.118E-03    7.57      28.2  T
   8    -23.5597959 -0.187436E-08  0.565E-04    7.57      59.0  T
   9    -23.5597959 -0.441009E-09  0.147E-04    7.57     226.0  T

   *** convergence criteria satisfied after 9 iterations ***

         #    Occupation            Energy/Eh            Energy/eV
      -------------------------------------------------------------
         1        2.0000           -0.5707323             -15.5304
       ...           ...                  ...                  ...
        13        2.0000           -0.2755192              -7.4973
        14        2.0000           -0.2546056              -6.9282
        15        2.0000           -0.2528993              -6.8817
        16        2.0000           -0.2463682              -6.7040
        17        2.0000           -0.2411360              -6.5616
        18        2.0000           -0.2383245              -6.4851
        19        2.0000           -0.2279569              -6.2030 (HOMO)
        20                          0.0500543               1.3620 (LUMO)
        21                          0.1093897               2.9766
        22                          0.1784623               4.8562
        23                          0.2189991               5.9593
        24                          0.2692878               7.3277
       ...                                ...                  ...
        32                          1.2779571              34.7750
      -------------------------------------------------------------
                  HL-Gap            0.2780112 Eh            7.5651 eV
             Fermi-level           -0.0889513 Eh           -2.4205 eV

 SCC (total)                   0 d,  0 h,  0 min,  0.303 sec
 SCC setup                      ...        0 min,  0.007 sec (  2.403%)
 Dispersion                     ...        0 min,  0.026 sec (  8.647%)
 classical contributions        ...        0 min,  0.008 sec (  2.589%)
 integral evaluation            ...        0 min,  0.020 sec (  6.699%)
 iterations                     ...        0 min,  0.183 sec ( 60.264%)
 molecular gradient             ...        0 min,  0.059 sec ( 19.341%)
 printout                       ...        0 min,  0.000 sec (  0.049%)

         :::::::::::::::::::::::::::::::::::::::::::::::::::::
         ::                     SUMMARY                     ::
         :::::::::::::::::::::::::::::::::::::::::::::::::::::
         :: total energy             -23.452192900678 Eh    ::
         :: gradient norm              0.057503720406 Eh/a0 ::
         :: HOMO-LUMO gap              7.565070786534 eV    ::
         ::.................................................::
         :: SCC energy               -23.559795897129 Eh    ::
         :: -> isotropic ES            0.216379841921 Eh    ::
         :: -> anisotropic ES         -0.015677337585 Eh    ::
         :: -> anisotropic XC         -0.004096627256 Eh    ::
         :: -> dispersion             -0.006908678235 Eh    ::
         :: repulsion energy           0.107600584335 Eh    ::
         :: add. restraining           0.000000000000 Eh    ::
         :: total charge              -1.000000000000 e     ::
         :::::::::::::::::::::::::::::::::::::::::::::::::::::

      ----------------------------------------------------------- 
     |                   =====================                   |
     |                        A N C O P T                        |
     |                   =====================                   |
     |               Approximate Normal Coordinate               |
     |                Rational Function Optimizer                |
      ----------------------------------------------------------- 

          ...................................................
          :                      SETUP                      :
          :.................................................:
          :   optimization level            normal          :
          :   max. optcycles                   200          :
          :   ANC micro-cycles                  20          :
          :   degrees of freedom                21          :
          :.................................................:
          :   RF solver                   davidson          :
          :   write xtbopt.log                true          :
          :   linear?                        false          :
          :   energy convergence         0.5000000E-05 Eh   :
          :   grad. convergence          0.1000000E-02 Eh/α :
          :   maximium RF displ.         1.0000000          :
          :   Hlow (freq-cutoff)         0.1000000E-01      :
          :   Hmax (freq-cutoff)         5.0000000          :
          :   S6 in model hess.         20.0000000          :
          ...................................................

generating ANC from model Hessian ...
Using Lindh-Hessian (1995)
 Shifting diagonal of input Hessian by    0.0000000000000000     
 Lowest  eigenvalues of input Hessian
    0.000000    0.000000    0.000000    0.000000    0.000000    0.000000
    0.019402    0.039217    0.057068    0.077104    0.091681    0.097348
    0.132101    0.214173    0.310487    0.366877    0.479797    0.535131
 Highest eigenvalues
    1.365304    1.776433    1.871635    3.095423    3.630293   10.791056


........................................................................
.............................. CYCLE    1 ..............................
........................................................................
   1    -23.5597959 -0.235598E+02  0.418E-05    7.57       0.0  T
   2    -23.5597959 -0.108002E-11  0.295E-05    7.57    1131.9  T
   3    -23.5597959 -0.108002E-11  0.825E-06    7.57    4041.7  T
     SCC iter.                  ...        0 min,  0.061 sec
     gradient                   ...        0 min,  0.077 sec
 * total energy  :   -23.4521929 Eh     change       -0.2714629E-10 Eh
   gradient norm :     0.0575041 Eh/α   predicted     0.0000000E+00 (-100.00%)
   displ. norm   :     0.2107663 α      lambda       -0.5148895E-02
   maximum displ.:     0.1653888 α      in ANC's #1, #4, #2, ...

........................................................................
.............................. CYCLE    2 ..............................
........................................................................
   1    -23.5687976 -0.235688E+02  0.225E-01    8.00       0.0  T
   2    -23.5688461 -0.484503E-04  0.147E-01    7.98       1.0  T
   3    -23.5688481 -0.200620E-05  0.733E-02    7.98       1.0  T
   4    -23.5688486 -0.484081E-06  0.135E-02    7.98       2.5  T
   5    -23.5688486 -0.506353E-07  0.305E-03    7.98      10.9  T
   6    -23.5688486 -0.553329E-08  0.167E-03    7.98      20.0  T
   7    -23.5688486 -0.137515E-08  0.246E-04    7.98     135.5  T
   8    -23.5688486 -0.249223E-10  0.859E-05    7.98     387.9  T
     SCC iter.                  ...        0 min,  0.524 sec
     gradient                   ...        0 min,  0.113 sec
 * total energy  :   -23.4560638 Eh     change       -0.3870875E-02 Eh
   gradient norm :     0.0329928 Eh/α   predicted    -0.2688811E-02 ( -30.54%)
   displ. norm   :     0.2287591 α      lambda       -0.3000975E-02
   maximum displ.:     0.2051584 α      in ANC's #1, #9, #15, ...

........................................................................
.............................. CYCLE    3 ..............................
........................................................................
   1    -23.5773435 -0.235773E+02  0.219E-01    8.45       0.0  T
   2    -23.5773843 -0.407833E-04  0.143E-01    8.43       1.0  T
   3    -23.5773866 -0.224563E-05  0.677E-02    8.43       1.0  T
   4    -23.5773870 -0.433611E-06  0.123E-02    8.43       2.7  T
   5    -23.5773871 -0.560126E-07  0.264E-03    8.43      12.6  T
   6    -23.5773871 -0.442669E-08  0.156E-03    8.43      21.4  T
   7    -23.5773871 -0.170003E-08  0.266E-04    8.43     125.2  T
   8    -23.5773871 -0.681410E-10  0.150E-04    8.43     222.4  T
     SCC iter.                  ...        0 min,  0.293 sec
     gradient                   ...        0 min,  0.073 sec
 * total energy  :   -23.4575682 Eh     change       -0.1504404E-02 Eh
   gradient norm :     0.0171049 Eh/α   predicted    -0.1579008E-02 (   4.96%)
   displ. norm   :     0.0279647 α      lambda       -0.1276404E-03
   maximum displ.:     0.0166885 α      in ANC's #4, #3, #2, ...

........................................................................
.............................. CYCLE    4 ..............................
........................................................................
   1    -23.5778925 -0.235779E+02  0.438E-02    8.46       0.0  T
   2    -23.5778928 -0.277544E-06  0.247E-02    8.46       1.4  T
   3    -23.5778928 -0.456181E-07  0.477E-03    8.46       7.0  T
   4    -23.5778928 -0.175769E-08  0.189E-03    8.46      17.6  T
   5    -23.5778928 -0.541998E-09  0.251E-04    8.46     132.9  T
   6    -23.5778928 -0.231211E-10  0.137E-04    8.46     243.9  T
     SCC iter.                  ...        0 min,  0.206 sec
     gradient                   ...        0 min,  0.070 sec
 * total energy  :   -23.4576149 Eh     change       -0.4672725E-04 Eh
   gradient norm :     0.0158266 Eh/α   predicted    -0.6386914E-04 (  36.68%)
   displ. norm   :     0.0128344 α      lambda       -0.3923753E-04
   maximum displ.:     0.0072705 α      in ANC's #4, #1, #2, ...

........................................................................
.............................. CYCLE    5 ..............................
........................................................................
   1    -23.5779324 -0.235779E+02  0.242E-02    8.46       0.0  T
   2    -23.5779329 -0.487762E-06  0.144E-02    8.46       2.3  T
   3    -23.5779329 -0.122077E-07  0.695E-03    8.46       4.8  T
   4    -23.5779329 -0.280655E-08  0.122E-03    8.46      27.2  T
   5    -23.5779329 -0.286555E-09  0.303E-04    8.46     110.0  T
   6    -23.5779329 -0.325961E-10  0.124E-04    8.46     268.5  T
     SCC iter.                  ...        0 min,  0.153 sec
     gradient                   ...        0 min,  0.060 sec
 * total energy  :   -23.4576356 Eh     change       -0.2066676E-04 Eh
   gradient norm :     0.0021199 Eh/α   predicted    -0.1962233E-04 (  -5.05%)
   displ. norm   :     0.0064717 α      lambda       -0.4111296E-05
   maximum displ.:     0.0039479 α      in ANC's #1, #3, #4, ...

........................................................................
.............................. CYCLE    6 ..............................
........................................................................
   1    -23.5780485 -0.235780E+02  0.797E-03    8.47       0.0  T
   2    -23.5780486 -0.970877E-07  0.491E-03    8.47       6.8  T
   3    -23.5780486 -0.134966E-08  0.294E-03    8.47      11.3  T
   4    -23.5780486 -0.718991E-09  0.413E-04    8.47      80.6  T
   5    -23.5780486 -0.406040E-10  0.925E-05    8.47     360.2  T
     SCC iter.                  ...        0 min,  0.304 sec
     gradient                   ...        0 min,  0.082 sec
 * total energy  :   -23.4576386 Eh     change       -0.3000065E-05 Eh
   gradient norm :     0.0014484 Eh/α   predicted    -0.2055759E-05 ( -31.48%)
   displ. norm   :     0.0099816 α      lambda       -0.2723015E-05
   maximum displ.:     0.0054112 α      in ANC's #3, #1, #6, ...

........................................................................
.............................. CYCLE    7 ..............................
........................................................................
   1    -23.5781687 -0.235782E+02  0.142E-02    8.48       0.0  T
   2    -23.5781690 -0.338375E-06  0.867E-03    8.47       3.8  T
   3    -23.5781690 -0.376194E-08  0.532E-03    8.47       6.3  T
   4    -23.5781690 -0.199719E-08  0.685E-04    8.47      48.6  T
   5    -23.5781690 -0.107100E-09  0.147E-04    8.47     227.0  T
     SCC iter.                  ...        0 min,  0.202 sec
     gradient                   ...        0 min,  0.102 sec
 * total energy  :   -23.4576401 Eh     change       -0.1477311E-05 Eh
   gradient norm :     0.0004915 Eh/α   predicted    -0.1361040E-05 (  -7.87%)
   displ. norm   :     0.0028095 α      lambda       -0.3996795E-06
   maximum displ.:     0.0014465 α      in ANC's #1, #6, #3, ...

   *** GEOMETRY OPTIMIZATION CONVERGED AFTER 7 ITERATIONS ***

------------------------------------------------------------------------
 total energy gain   :        -0.0054472 Eh       -3.4181 kcal/mol
 total RMSD          :         0.1476364 a0        0.0781 Å
 total power (kW/mol):        -2.0430704 (step)   -5.4093 (real)
------------------------------------------------------------------------

 ANCopt (total)                0 d,  0 h,  0 min,  2.644 sec
 optimizer setup                ...        0 min,  0.000 sec (  0.002%)
 model hessian                  ...        0 min,  0.004 sec (  0.137%)
 ANC generation                 ...        0 min,  0.002 sec (  0.092%)
 coordinate transformation      ...        0 min,  0.000 sec (  0.002%)
 single point calculation       ...        0 min,  2.594 sec ( 98.111%)
 optimization log               ...        0 min,  0.001 sec (  0.024%)
 hessian update                 ...        0 min,  0.041 sec (  1.565%)
 rational function              ...        0 min,  0.001 sec (  0.052%)

================
 final structure:
================
9
 xtb: 6.5.1 (b24c23e)
S           -0.37780180041182        0.01530295283715        0.12961799710399
O           -0.50912437368619       -0.26293806431590       -1.29130013012575
O           -0.68054166472267       -1.13423273854772        0.96395156904223
O            1.26472054470862        0.27998347836350        0.38068660191659
C            1.98540377833522       -0.46617251866716       -0.53516574221851
O           -0.98716076481187        1.25186136511741        0.56842952296983
H            1.73971243996405       -0.16244689414927       -1.55721425390643
H            3.05281836419377       -0.31602185721980       -0.33950311124226
H            1.73765846643086       -1.53012772341818       -0.43243743353969

 Bond Distances (Angstroems)
 ---------------------------
S1-O2=1.4538         S1-O3=1.4523         S1-O4=1.6825         S1-O6=1.4467         O2-S1=1.4538         O3-S1=1.4523         
O4-S1=1.6825         O4-C5=1.3838         C5-O4=1.3838         C5-H7=1.0942         C5-H8=1.0955         C5-H9=1.0972         
O6-S1=1.4467         H7-C5=1.0942         H8-C5=1.0955         H9-C5=1.0972         
 C  H  Rav=1.0956 sigma=0.0013  Rmin=1.0942  Rmax=1.0972     3
 O  C  Rav=1.3838 sigma=0.0000  Rmin=1.3838  Rmax=1.3838     1
 S  O  Rav=1.5089 sigma=0.1003  Rmin=1.4467  Rmax=1.6825     4

 selected bond angles (degree)
 --------------------
O3-S1-O2=113.03                O4-S1-O2=105.31                O4-S1-O3=104.02                O6-S1-O2=114.96                
O6-S1-O3=114.49                O6-S1-O4=103.38                C5-O4-S1=108.96                H7-C5-O4=110.58                
H8-C5-O4=108.38                H8-C5-H7=110.34                H9-C5-O4=110.08                H9-C5-H7=107.81                
H9-C5-H8=109.64                

 selected dihedral angles (degree)
 ---------------------------------
C5-O4-S1-O2=329.85            C5-O4-S1-O3= 88.96            C5-O4-S1-O6=208.86            H7-C5-O4-S1= 61.01            
H8-C5-O4-S1=182.07            H9-C5-O4-S1=301.98            
           -------------------------------------------------
          |                Final Singlepoint                |
           -------------------------------------------------

          ...................................................
          :                      SETUP                      :
          :.................................................:
          :  # basis functions                  33          :
          :  # atomic orbitals                  32          :
          :  # shells                           16          :
          :  # electrons                        38          :
          :  max. iterations                   250          :
          :  Hamiltonian                  GFN2-xTB          :
          :  restarted?                      false          :
          :  GBSA solvation                  false          :
          :  PC potential                    false          :
          :  electronic temp.          300.0000000     K    :
          :  accuracy                    1.0000000          :
          :  -> integral cutoff          0.2500000E+02      :
          :  -> integral neglect         0.1000000E-07      :
          :  -> SCF convergence          0.1000000E-05 Eh   :
          :  -> wf. convergence          0.1000000E-03 e    :
          :  Broyden damping             0.4000000          :
          ...................................................

 iter      E             dE          RMSdq      gap      omega  full diag
   1    -23.5781690 -0.235782E+02  0.781E-05    8.47       0.0  T
   2    -23.5781690 -0.131095E-11  0.511E-05    8.47     652.6  T
   3    -23.5781690 -0.109424E-11  0.844E-06    8.47    3949.0  T

   *** convergence criteria satisfied after 3 iterations ***

         #    Occupation            Energy/Eh            Energy/eV
      -------------------------------------------------------------
         1        2.0000           -0.5689520             -15.4820
       ...           ...                  ...                  ...
        13        2.0000           -0.2751617              -7.4875
        14        2.0000           -0.2568042              -6.9880
        15        2.0000           -0.2546403              -6.9291
        16        2.0000           -0.2471166              -6.7244
        17        2.0000           -0.2394231              -6.5150
        18        2.0000           -0.2376521              -6.4668
        19        2.0000           -0.2269180              -6.1748 (HOMO)
        20                          0.0845280               2.3001 (LUMO)
        21                          0.1447083               3.9377
        22                          0.2048366               5.5739
        23                          0.2283136               6.2127
        24                          0.2717536               7.3948
       ...                                ...                  ...
        32                          1.4086097              38.3302
      -------------------------------------------------------------
                  HL-Gap            0.3114460 Eh            8.4749 eV
             Fermi-level           -0.0711950 Eh           -1.9373 eV

 SCC (total)                   0 d,  0 h,  0 min,  0.145 sec
 SCC setup                      ...        0 min,  0.004 sec (  2.653%)
 Dispersion                     ...        0 min,  0.003 sec (  2.044%)
 classical contributions        ...        0 min,  0.004 sec (  2.551%)
 integral evaluation            ...        0 min,  0.000 sec (  0.328%)
 iterations                     ...        0 min,  0.064 sec ( 44.377%)
 molecular gradient             ...        0 min,  0.069 sec ( 47.940%)
 printout                       ...        0 min,  0.000 sec (  0.094%)

         :::::::::::::::::::::::::::::::::::::::::::::::::::::
         ::                     SUMMARY                     ::
         :::::::::::::::::::::::::::::::::::::::::::::::::::::
         :: total energy             -23.457640051645 Eh    ::
         :: gradient norm              0.000491856007 Eh/a0 ::
         :: HOMO-LUMO gap              8.474877838579 eV    ::
         ::.................................................::
         :: SCC energy               -23.578169027952 Eh    ::
         :: -> isotropic ES            0.214324746059 Eh    ::
         :: -> anisotropic ES         -0.021870881350 Eh    ::
         :: -> anisotropic XC         -0.005729949371 Eh    ::
         :: -> dispersion             -0.007049866555 Eh    ::
         :: repulsion energy           0.120519128183 Eh    ::
         :: add. restraining           0.000007881392 Eh    ::
         :: total charge              -1.000000000000 e     ::
         :::::::::::::::::::::::::::::::::::::::::::::::::::::

           -------------------------------------------------
          |                Property Printout                |
           -------------------------------------------------

    * Orbital Energies and Occupations

         #    Occupation            Energy/Eh            Energy/eV
      -------------------------------------------------------------
         1        2.0000           -0.5689520             -15.4820
       ...           ...                  ...                  ...
         7        2.0000           -0.3909710             -10.6389
         8        2.0000           -0.3879248             -10.5560
         9        2.0000           -0.3828513             -10.4179
        10        2.0000           -0.3220964              -8.7647
        11        2.0000           -0.3176706              -8.6443
        12        2.0000           -0.3143072              -8.5527
        13        2.0000           -0.2751617              -7.4875
        14        2.0000           -0.2568042              -6.9880
        15        2.0000           -0.2546403              -6.9291
        16        2.0000           -0.2471166              -6.7244
        17        2.0000           -0.2394231              -6.5150
        18        2.0000           -0.2376521              -6.4668
        19        2.0000           -0.2269180              -6.1748 (HOMO)
        20                          0.0845280               2.3001 (LUMO)
        21                          0.1447083               3.9377
        22                          0.2048366               5.5739
        23                          0.2283136               6.2127
        24                          0.2717536               7.3948
        25                          0.3103176               8.4442
        26                          0.3333310               9.0704
        27                          0.3488017               9.4914
        28                          0.4332860              11.7903
        29                          0.4511259              12.2758
        30                          0.9387711              25.5453
       ...                                ...                  ...
        32                          1.4086097              38.3302
      -------------------------------------------------------------
                  HL-Gap            0.3114460 Eh            8.4749 eV
             Fermi-level           -0.0711950 Eh           -1.9373 eV

     #   Z          covCN         q      C6AA      α(0)
     1  16 S        3.689     1.426    95.268    16.428
     2   8 O        0.860    -0.707    28.887     7.206
     3   8 O        0.860    -0.699    28.683     7.180
     4   8 O        1.706    -0.483    22.505     6.405
     5   6 C        3.879     0.069    19.376     6.258
     6   8 O        0.860    -0.680    28.170     7.116
     7   1 H        0.924     0.035     2.520     2.482
     8   1 H        0.924     0.018     2.768     2.602
     9   1 H        0.924     0.021     2.726     2.582

 Mol. C6AA /au·bohr⁶  :       1570.436724
 Mol. C8AA /au·bohr⁸  :      40481.213088
 Mol. α(0) /au        :         58.259574


Wiberg/Mayer (AO) data.
largest (>0.10) Wiberg bond orders for each atom

 ---------------------------------------------------------------------------
     #   Z sym  total        # sym  WBO       # sym  WBO       # sym  WBO
 ---------------------------------------------------------------------------
     1  16 S    5.065 --     6 O    1.447     3 O    1.418     2 O    1.410
                             4 O    0.773
     2   8 O    1.730 --     1 S    1.410     3 O    0.119     6 O    0.118
     3   8 O    1.735 --     1 S    1.418     6 O    0.122     2 O    0.119
     4   8 O    2.023 --     5 C    1.010     1 S    0.773
     5   6 C    3.958 --     4 O    1.010     8 H    0.979     9 H    0.979
                             7 H    0.975
     6   8 O    1.759 --     1 S    1.447     3 O    0.122     2 O    0.118
     7   1 H    0.999 --     5 C    0.975
     8   1 H    1.000 --     5 C    0.979
     9   1 H    1.000 --     5 C    0.979
 ---------------------------------------------------------------------------

Topologies differ in total number of bonds
Writing topology from bond orders to xtbtopo.mol

molecular dipole:
                 x           y           z       tot (Debye)
 q only:        1.220      -0.115      -0.478
   full:        1.480      -0.141      -0.527       4.009
molecular quadrupole (traceless):
                xx          xy          yy          xz          yz          zz
 q only:        3.044      -0.636      -1.528      -0.688       0.179      -1.516
  q+dip:        3.151      -0.053      -1.464       0.166      -0.558      -1.688
   full:        3.713      -0.343      -1.827      -0.225      -0.170      -1.885

           -------------------------------------------------
          |                Geometry Summary                 |
           -------------------------------------------------

      molecular mass/u    :      111.0969652
   center of mass at/Å    :        0.0334925      -0.0448098       0.0479644
  moments of inertia/u·Å² :        0.9935658E+02   0.1776919E+03   0.1798067E+03
rotational constants/cm⁻¹ :        0.1696680E+00   0.9487004E-01   0.9375420E-01

 * 7 selected distances

     #   Z          #   Z                                           value/Å
     1  16 S        2   8 O                                       1.4538474 (max)
     1  16 S        3   8 O                                       1.4523073
     4   8 O        5   6 C                                       1.3838060
     1  16 S        6   8 O                                       1.4467035
     5   6 C        7   1 H                                       1.0941649 (min)
     5   6 C        8   1 H                                       1.0955379
     5   6 C        9   1 H                                       1.0972382

 * 3 distinct bonds (by element types)

   Z      Z             #   av. dist./Å        max./Å        min./Å
   1 H    6 C           3     1.0956470     1.0972382     1.0941649
   6 C    8 O           1     1.3838060     1.3838060     1.3838060
   8 O   16 S           3     1.4509528     1.4538474     1.4467035


optimized geometry written to: xtbopt.xyz


           -------------------------------------------------
          | TOTAL ENERGY              -23.457640051645 Eh   |
          | GRADIENT NORM               0.000491856007 Eh/α |
          | HOMO-LUMO GAP               8.474877838579 eV   |
           -------------------------------------------------

------------------------------------------------------------------------
 * finished run on 2022/11/03 at 12:55:04.735     
------------------------------------------------------------------------
 total:
 * wall-time:     0 d,  0 h,  0 min,  3.134 sec
 *  cpu-time:     0 d,  0 h,  0 min, 24.702 sec
 * ratio c/w:     7.882 speedup
 SCF:
 * wall-time:     0 d,  0 h,  0 min,  0.303 sec
 *  cpu-time:     0 d,  0 h,  0 min,  2.424 sec
 * ratio c/w:     7.990 speedup
 ANC optimizer:
 * wall-time:     0 d,  0 h,  0 min,  2.789 sec
 *  cpu-time:     0 d,  0 h,  0 min, 21.948 sec
 * ratio c/w:     7.869 speedup

