      -----------------------------------------------------------      
     |                   =====================                   |     
     |                           x T B                           |     
     |                   =====================                   |     
     |                         S. Grimme                         |     
     |          Mulliken Center for Theoretical Chemistry        |     
     |                    University of Bonn                     |     
      -----------------------------------------------------------      

   * xtb version 6.5.1 (b24c23e) compiled by 'conda@728c89f4b128' on 2022-07-12

   xtb is free software: you can redistribute it and/or modify it under
   the terms of the GNU Lesser General Public License as published by
   the Free Software Foundation, either version 3 of the License, or
   (at your option) any later version.
   
   xtb is distributed in the hope that it will be useful,
   but WITHOUT ANY WARRANTY; without even the implied warranty of
   MERCHANTABILITY or FITNESS FOR A PARTICULAR PURPOSE.  See the
   GNU Lesser General Public License for more details.
   
   Cite this work as:
   * C. Bannwarth, E. Caldeweyher, S. Ehlert, A. Hansen, P. Pracht,
     J. Seibert, S. Spicher, S. Grimme, WIREs Comput. Mol. Sci., 2020, 11,
     e01493. DOI: 10.1002/wcms.1493
   
   for GFN2-xTB:
   * C. Bannwarth, S. Ehlert and S. Grimme., J. Chem. Theory Comput., 2019,
     15, 1652-1671. DOI: 10.1021/acs.jctc.8b01176
   for GFN1-xTB:
   * S. Grimme, C. Bannwarth, P. Shushkov, J. Chem. Theory Comput., 2017,
     13, 1989-2009. DOI: 10.1021/acs.jctc.7b00118
   for GFN0-xTB:
   * P. Pracht, E. Caldeweyher, S. Ehlert, S. Grimme, ChemRxiv, 2019, preprint.
     DOI: 10.26434/chemrxiv.8326202.v1
   for GFN-FF:
   * S. Spicher and S. Grimme, Angew. Chem. Int. Ed., 2020, 59, 15665-15673.
     DOI: 10.1002/anie.202004239
   
   for ALPB and GBSA implicit solvation:
   * S. Ehlert, M. Stahn, S. Spicher, S. Grimme, J. Chem. Theory Comput.,
     2021, 17, 4250-4261. DOI: 10.1021/acs.jctc.1c00471
   
   for DFT-D4:
   * E. Caldeweyher, C. Bannwarth and S. Grimme, J. Chem. Phys., 2017,
     147, 034112. DOI: 10.1063/1.4993215
   * E. Caldeweyher, S. Ehlert, A. Hansen, H. Neugebauer, S. Spicher,
     C. Bannwarth and S. Grimme, J. Chem. Phys., 2019, 150, 154122.
     DOI: 10.1063/1.5090222
   * E. Caldeweyher, J.-M. Mewes, S. Ehlert and S. Grimme, Phys. Chem. Chem. Phys.
     2020, 22, 8499-8512. DOI: 10.1039/D0CP00502A
   
   for sTDA-xTB:
   * S. Grimme and C. Bannwarth, J. Chem. Phys., 2016, 145, 054103.
     DOI: 10.1063/1.4959605
   
   in the mass-spec context:
   * V. Asgeirsson, C. Bauer and S. Grimme, Chem. Sci., 2017, 8, 4879.
     DOI: 10.1039/c7sc00601b
   * J. Koopman and S. Grimme, ACS Omega 2019, 4, 12, 15120-15133.
     DOI: 10.1021/acsomega.9b02011
   
   for metadynamics refer to:
   * S. Grimme, J. Chem. Theory Comput., 2019, 155, 2847-2862
     DOI: 10.1021/acs.jctc.9b00143
   
   for SPH calculations refer to:
   * S. Spicher and S. Grimme, J. Chem. Theory Comput., 2021, 17, 1701-1714
     DOI: 10.1021/acs.jctc.0c01306
   
   with help from (in alphabetical order)
   P. Atkinson, C. Bannwarth, F. Bohle, G. Brandenburg, E. Caldeweyher
   M. Checinski, S. Dohm, S. Ehlert, S. Ehrlich, I. Gerasimov, C. Hölzer
   A. Katbashev, J. Koopman, C. Lavigne, S. Lehtola, F. März, M. Müller,
   F. Musil, H. Neugebauer, J. Pisarek, C. Plett, P. Pracht, F. Pultar,
   J. Seibert, P. Shushkov, S. Spicher, M. Stahn, M. Steiner, T. Strunk,
   J. Stückrath, T. Rose, and J. Unsleber
   
 * started run on 2022/11/03 at 12:55:15.836     

           -------------------------------------------------
          |                Calculation Setup                |
           -------------------------------------------------

          program call               : /home/chase/psi4conda/envs/xtbenv/bin/xtb --gfn 2 --chrg -1 --uhf 0 mso4-opt-1-4-000_preQMOPTprefit_xyzformat.xyz --opt --input xtb-opt-1-4-000_constr.txt
          coordinate file            : mso4-opt-1-4-000_preQMOPTprefit_xyzformat.xyz
          omp threads                :                     8

   ID    Z sym.   atoms
    1   16 S      1
    2    8 O      2-4, 6
    3    6 C      5
    4    1 H      7-9
constraining angle 2 1 4 5 to    0.0000147°, actual value:    0.0000147°
constraining angle 1 4 5 7 to   60.9945380°, actual value:   60.9945380°

           -------------------------------------------------
          |                 G F N 2 - x T B                 |
           -------------------------------------------------

        Reference                      10.1021/acs.jctc.8b01176
      * Hamiltonian:
        H0-scaling (s, p, d)           1.850000    2.230000    2.230000
        zeta-weighting                 0.500000
      * Dispersion:
        s8                             2.700000
        a1                             0.520000
        a2                             5.000000
        s9                             5.000000
      * Repulsion:
        kExp                           1.500000    1.000000
        rExp                           1.000000
      * Coulomb:
        alpha                          2.000000
        third order                    shell-resolved
        anisotropic                    true
        a3                             3.000000
        a5                             4.000000
        cn-shift                       1.200000
        cn-exp                         4.000000
        max-rad                        5.000000

q/qsh data taken from xtbrestart
CAMM data taken from xtbrestart

          ...................................................
          :                      SETUP                      :
          :.................................................:
          :  # basis functions                  33          :
          :  # atomic orbitals                  32          :
          :  # shells                           16          :
          :  # electrons                        38          :
          :  max. iterations                   250          :
          :  Hamiltonian                  GFN2-xTB          :
          :  restarted?                       true          :
          :  GBSA solvation                  false          :
          :  PC potential                    false          :
          :  electronic temp.          300.0000000     K    :
          :  accuracy                    1.0000000          :
          :  -> integral cutoff          0.2500000E+02      :
          :  -> integral neglect         0.1000000E-07      :
          :  -> SCF convergence          0.1000000E-05 Eh   :
          :  -> wf. convergence          0.1000000E-03 e    :
          :  Broyden damping             0.4000000          :
          ...................................................

 iter      E             dE          RMSdq      gap      omega  full diag
   1    -23.5573677 -0.235574E+02  0.118E+00    7.50       0.0  T
   2    -23.5578001 -0.432469E-03  0.704E-01    7.55       1.0  T
   3    -23.5578385 -0.384215E-04  0.211E-01    7.56       1.0  T
   4    -23.5578434 -0.485789E-05  0.398E-02    7.56       1.0  T
   5    -23.5578438 -0.414536E-06  0.112E-02    7.56       3.0  T
   6    -23.5578439 -0.452690E-07  0.373E-03    7.56       8.9  T
   7    -23.5578439 -0.745419E-08  0.641E-04    7.56      52.0  T
   8    -23.5578439 -0.270894E-09  0.324E-04    7.56     102.9  T

   *** convergence criteria satisfied after 8 iterations ***

         #    Occupation            Energy/Eh            Energy/eV
      -------------------------------------------------------------
         1        2.0000           -0.5708449             -15.5335
       ...           ...                  ...                  ...
        13        2.0000           -0.2789952              -7.5918
        14        2.0000           -0.2555666              -6.9543
        15        2.0000           -0.2511309              -6.8336
        16        2.0000           -0.2456907              -6.6856
        17        2.0000           -0.2403038              -6.5390
        18        2.0000           -0.2374224              -6.4606
        19        2.0000           -0.2274020              -6.1879 (HOMO)
        20                          0.0502760               1.3681 (LUMO)
        21                          0.1091512               2.9702
        22                          0.1712602               4.6602
        23                          0.2163421               5.8870
        24                          0.2719575               7.4003
       ...                                ...                  ...
        32                          1.2770277              34.7497
      -------------------------------------------------------------
                  HL-Gap            0.2776780 Eh            7.5560 eV
             Fermi-level           -0.0885630 Eh           -2.4099 eV

 SCC (total)                   0 d,  0 h,  0 min,  0.252 sec
 SCC setup                      ...        0 min,  0.005 sec (  1.837%)
 Dispersion                     ...        0 min,  0.016 sec (  6.421%)
 classical contributions        ...        0 min,  0.008 sec (  3.258%)
 integral evaluation            ...        0 min,  0.022 sec (  8.725%)
 iterations                     ...        0 min,  0.156 sec ( 62.118%)
 molecular gradient             ...        0 min,  0.044 sec ( 17.577%)
 printout                       ...        0 min,  0.000 sec (  0.057%)

         :::::::::::::::::::::::::::::::::::::::::::::::::::::
         ::                     SUMMARY                     ::
         :::::::::::::::::::::::::::::::::::::::::::::::::::::
         :: total energy             -23.450233156976 Eh    ::
         :: gradient norm              0.057216345757 Eh/a0 ::
         :: HOMO-LUMO gap              7.556003747948 eV    ::
         ::.................................................::
         :: SCC energy               -23.557843872259 Eh    ::
         :: -> isotropic ES            0.216503546443 Eh    ::
         :: -> anisotropic ES         -0.014869174358 Eh    ::
         :: -> anisotropic XC         -0.003995014625 Eh    ::
         :: -> dispersion             -0.006889769351 Eh    ::
         :: repulsion energy           0.107608196214 Eh    ::
         :: add. restraining           0.000000000000 Eh    ::
         :: total charge              -1.000000000000 e     ::
         :::::::::::::::::::::::::::::::::::::::::::::::::::::

      ----------------------------------------------------------- 
     |                   =====================                   |
     |                        A N C O P T                        |
     |                   =====================                   |
     |               Approximate Normal Coordinate               |
     |                Rational Function Optimizer                |
      ----------------------------------------------------------- 

          ...................................................
          :                      SETUP                      :
          :.................................................:
          :   optimization level            normal          :
          :   max. optcycles                   200          :
          :   ANC micro-cycles                  20          :
          :   degrees of freedom                21          :
          :.................................................:
          :   RF solver                   davidson          :
          :   write xtbopt.log                true          :
          :   linear?                        false          :
          :   energy convergence         0.5000000E-05 Eh   :
          :   grad. convergence          0.1000000E-02 Eh/α :
          :   maximium RF displ.         1.0000000          :
          :   Hlow (freq-cutoff)         0.1000000E-01      :
          :   Hmax (freq-cutoff)         5.0000000          :
          :   S6 in model hess.         20.0000000          :
          ...................................................

generating ANC from model Hessian ...
Using Lindh-Hessian (1995)
 Shifting diagonal of input Hessian by    0.0000000000000000     
 Lowest  eigenvalues of input Hessian
    0.000000    0.000000    0.000000    0.000000    0.000000    0.000000
    0.019699    0.040043    0.056607    0.076973    0.091717    0.096145
    0.131771    0.213522    0.312350    0.368236    0.478658    0.539614
 Highest eigenvalues
    1.367002    1.791082    1.876314    3.235784    3.420732   11.245224


........................................................................
.............................. CYCLE    1 ..............................
........................................................................
   1    -23.5578439 -0.235578E+02  0.898E-05    7.56       0.0  T
   2    -23.5578439 -0.553158E-11  0.604E-05    7.56     552.0  T
   3    -23.5578439 -0.555644E-11  0.207E-05    7.56    1611.6  T
     SCC iter.                  ...        0 min,  0.078 sec
     gradient                   ...        0 min,  0.065 sec
 * total energy  :   -23.4502332 Eh     change       -0.1112745E-09 Eh
   gradient norm :     0.0572157 Eh/α   predicted     0.0000000E+00 (-100.00%)
   displ. norm   :     0.1753596 α      lambda       -0.4450297E-02
   maximum displ.:     0.1376458 α      in ANC's #1, #4, #9, ...

........................................................................
.............................. CYCLE    2 ..............................
........................................................................
   1    -23.5663839 -0.235664E+02  0.186E-01    7.96       0.0  T
   2    -23.5664220 -0.380509E-04  0.122E-01    7.94       1.0  T
   3    -23.5664232 -0.126900E-05  0.684E-02    7.94       1.0  T
   4    -23.5664237 -0.449071E-06  0.820E-03    7.94       4.1  T
   5    -23.5664237 -0.303304E-07  0.348E-03    7.94       9.6  T
   6    -23.5664237 -0.694158E-08  0.151E-03    7.94      22.0  T
   7    -23.5664237 -0.106655E-08  0.385E-04    7.94      86.6  T
   8    -23.5664237 -0.572946E-10  0.838E-05    7.94     397.6  T
     SCC iter.                  ...        0 min,  0.133 sec
     gradient                   ...        0 min,  0.067 sec
 * total energy  :   -23.4535952 Eh     change       -0.3362076E-02 Eh
   gradient norm :     0.0327196 Eh/α   predicted    -0.2293576E-02 ( -31.78%)
   displ. norm   :     0.1792654 α      lambda       -0.2634604E-02
   maximum displ.:     0.1547761 α      in ANC's #1, #15, #9, ...

........................................................................
.............................. CYCLE    3 ..............................
........................................................................
   1    -23.5748392 -0.235748E+02  0.195E-01    8.37       0.0  T
   2    -23.5748754 -0.362082E-04  0.123E-01    8.35       1.0  T
   3    -23.5748770 -0.163756E-05  0.670E-02    8.35       1.0  T
   4    -23.5748775 -0.501971E-06  0.805E-03    8.35       4.1  T
   5    -23.5748776 -0.392062E-07  0.334E-03    8.35      10.0  T
   6    -23.5748776 -0.678948E-08  0.152E-03    8.35      21.9  T
   7    -23.5748776 -0.996923E-09  0.331E-04    8.35     100.8  T
   8    -23.5748776 -0.295337E-10  0.804E-05    8.35     414.6  T
     SCC iter.                  ...        0 min,  0.187 sec
     gradient                   ...        0 min,  0.073 sec
 * total energy  :   -23.4549392 Eh     change       -0.1344001E-02 Eh
   gradient norm :     0.0057127 Eh/α   predicted    -0.1359635E-02 (   1.16%)
   displ. norm   :     0.0181618 α      lambda       -0.4194360E-04
   maximum displ.:     0.0166385 α      in ANC's #4, #1, #15, ...

........................................................................
.............................. CYCLE    4 ..............................
........................................................................
   1    -23.5750612 -0.235751E+02  0.313E-02    8.36       0.0  T
   2    -23.5750613 -0.155714E-06  0.187E-02    8.37       1.8  T
   3    -23.5750614 -0.159920E-07  0.247E-03    8.37      13.5  T
   4    -23.5750614 -0.129529E-08  0.101E-03    8.37      32.9  T
   5    -23.5750614 -0.197652E-09  0.141E-04    8.37     236.7  T
   6    -23.5750614 -0.896705E-11  0.539E-05    8.37     618.6  T
     SCC iter.                  ...        0 min,  0.143 sec
     gradient                   ...        0 min,  0.050 sec
 * total energy  :   -23.4549628 Eh     change       -0.2354579E-04 Eh
   gradient norm :     0.0041391 Eh/α   predicted    -0.2097995E-04 ( -10.90%)
   displ. norm   :     0.0069031 α      lambda       -0.7304257E-05
   maximum displ.:     0.0063272 α      in ANC's #4, #9, #3, ...

........................................................................
.............................. CYCLE    5 ..............................
........................................................................
   1    -23.5751726 -0.235752E+02  0.119E-02    8.37       0.0  T
   2    -23.5751727 -0.678777E-07  0.766E-03    8.37       4.4  T
   3    -23.5751727 -0.322103E-08  0.217E-03    8.37      15.4  T
   4    -23.5751727 -0.256104E-09  0.508E-04    8.37      65.6  T
   5    -23.5751727 -0.448885E-10  0.121E-04    8.37     276.0  T
     SCC iter.                  ...        0 min,  0.082 sec
     gradient                   ...        0 min,  0.049 sec
 * total energy  :   -23.4549643 Eh     change       -0.1534885E-05 Eh
   gradient norm :     0.0041904 Eh/α   predicted    -0.3651300E-05 ( 137.89%)
   displ. norm   :     0.0023892 α      lambda       -0.2295723E-05
   maximum displ.:     0.0018285 α      in ANC's #4, #1, #3, ...

........................................................................
.............................. CYCLE    6 ..............................
........................................................................
   1    -23.5752063 -0.235752E+02  0.396E-03    8.37       0.0  T
   2    -23.5752063 -0.299744E-08  0.230E-03    8.37      14.5  T
   3    -23.5752063 -0.206445E-09  0.547E-04    8.37      61.0  T
   4    -23.5752063 -0.123919E-10  0.122E-04    8.37     273.8  T
     SCC iter.                  ...        0 min,  0.062 sec
     gradient                   ...        0 min,  0.041 sec
 * total energy  :   -23.4549655 Eh     change       -0.1224898E-05 Eh
   gradient norm :     0.0003263 Eh/α   predicted    -0.1146958E-05 (  -6.36%)
   displ. norm   :     0.0009941 α      lambda       -0.1195779E-06
   maximum displ.:     0.0007349 α      in ANC's #4, #1, #12, ...

   *** GEOMETRY OPTIMIZATION CONVERGED AFTER 6 ITERATIONS ***

------------------------------------------------------------------------
 total energy gain   :        -0.0047324 Eh       -2.9696 kcal/mol
 total RMSD          :         0.1161604 a0        0.0615 Å
 total power (kW/mol):        -2.0708117 (step)   -9.6164 (real)
------------------------------------------------------------------------

 ANCopt (total)                0 d,  0 h,  0 min,  1.292 sec
 optimizer setup                ...        0 min,  0.000 sec (  0.004%)
 model hessian                  ...        0 min,  0.002 sec (  0.156%)
 ANC generation                 ...        0 min,  0.000 sec (  0.017%)
 coordinate transformation      ...        0 min,  0.000 sec (  0.002%)
 single point calculation       ...        0 min,  1.255 sec ( 97.096%)
 optimization log               ...        0 min,  0.000 sec (  0.036%)
 hessian update                 ...        0 min,  0.034 sec (  2.628%)
 rational function              ...        0 min,  0.001 sec (  0.040%)

================
 final structure:
================
9
 xtb: 6.5.1 (b24c23e)
S           -0.39884124650297       -0.04939220196132        0.17812490147606
O           -0.50566961908122       -0.57905192636114       -1.17146813160938
O           -0.91847086183433       -0.93389586175596        1.20294015072482
O            1.25562662350486        0.01664718174783        0.50407890052783
C            2.00180658511663       -0.43549888310030       -0.56756771331090
O           -0.83288256951879        1.32798078555226        0.30858141147960
H            1.82798989100389        0.18289031164480       -1.45534566703834
H            3.06159909155654       -0.38799836672794       -0.28889814795946
H            1.73452710575539       -1.46647304903822       -0.82337869429021

 Bond Distances (Angstroems)
 ---------------------------
S1-O2=1.4537         S1-O3=1.4500         S1-O4=1.6876         S1-O6=1.4500         O2-S1=1.4537         O3-S1=1.4500         
O4-S1=1.6876         O4-C5=1.3819         C5-O4=1.3819         C5-H7=1.0958         C5-H8=1.0968         C5-H9=1.0953         
O6-S1=1.4500         H7-C5=1.0958         H8-C5=1.0968         H9-C5=1.0953         
 C  H  Rav=1.0960 sigma=0.0006  Rmin=1.0953  Rmax=1.0968     3
 O  C  Rav=1.3819 sigma=0.0000  Rmin=1.3819  Rmax=1.3819     1
 S  O  Rav=1.5103 sigma=0.1023  Rmin=1.4500  Rmax=1.6876     4

 selected bond angles (degree)
 --------------------
O3-S1-O2=114.05                O4-S1-O2=105.40                O4-S1-O3=103.81                O6-S1-O2=114.06                
O6-S1-O3=114.12                O6-S1-O4=103.82                C5-O4-S1=111.52                H7-C5-O4=110.98                
H8-C5-O4=108.09                H8-C5-H7=109.55                H9-C5-O4=110.94                H9-C5-H7=107.65                
H9-C5-H8=109.63                

 selected dihedral angles (degree)
 ---------------------------------
C5-O4-S1-O2=  0.00            C5-O4-S1-O3=120.20            C5-O4-S1-O6=239.79            H7-C5-O4-S1= 60.99            
H8-C5-O4-S1=181.15            H9-C5-O4-S1=301.36            
           -------------------------------------------------
          |                Final Singlepoint                |
           -------------------------------------------------

          ...................................................
          :                      SETUP                      :
          :.................................................:
          :  # basis functions                  33          :
          :  # atomic orbitals                  32          :
          :  # shells                           16          :
          :  # electrons                        38          :
          :  max. iterations                   250          :
          :  Hamiltonian                  GFN2-xTB          :
          :  restarted?                      false          :
          :  GBSA solvation                  false          :
          :  PC potential                    false          :
          :  electronic temp.          300.0000000     K    :
          :  accuracy                    1.0000000          :
          :  -> integral cutoff          0.2500000E+02      :
          :  -> integral neglect         0.1000000E-07      :
          :  -> SCF convergence          0.1000000E-05 Eh   :
          :  -> wf. convergence          0.1000000E-03 e    :
          :  Broyden damping             0.4000000          :
          ...................................................

 iter      E             dE          RMSdq      gap      omega  full diag
   1    -23.5752063 -0.235752E+02  0.270E-05    8.37       0.0  T
   2    -23.5752063 -0.259348E-12  0.187E-05    8.37    1783.4  T
   3    -23.5752063 -0.259348E-12  0.335E-06    8.37    9942.4  T

   *** convergence criteria satisfied after 3 iterations ***

         #    Occupation            Energy/Eh            Energy/eV
      -------------------------------------------------------------
         1        2.0000           -0.5692271             -15.4895
       ...           ...                  ...                  ...
        13        2.0000           -0.2796145              -7.6087
        14        2.0000           -0.2573300              -7.0023
        15        2.0000           -0.2528768              -6.8811
        16        2.0000           -0.2450770              -6.6689
        17        2.0000           -0.2382197              -6.4823
        18        2.0000           -0.2376896              -6.4679
        19        2.0000           -0.2263488              -6.1593 (HOMO)
        20                          0.0813592               2.2139 (LUMO)
        21                          0.1433194               3.8999
        22                          0.1962097               5.3391
        23                          0.2261667               6.1543
        24                          0.2699839               7.3466
       ...                                ...                  ...
        32                          1.4040731              38.2068
      -------------------------------------------------------------
                  HL-Gap            0.3077080 Eh            8.3732 eV
             Fermi-level           -0.0724948 Eh           -1.9727 eV

 SCC (total)                   0 d,  0 h,  0 min,  0.181 sec
 SCC setup                      ...        0 min,  0.003 sec (  1.417%)
 Dispersion                     ...        0 min,  0.007 sec (  3.755%)
 classical contributions        ...        0 min,  0.008 sec (  4.405%)
 integral evaluation            ...        0 min,  0.026 sec ( 14.140%)
 iterations                     ...        0 min,  0.075 sec ( 41.291%)
 molecular gradient             ...        0 min,  0.063 sec ( 34.764%)
 printout                       ...        0 min,  0.000 sec (  0.218%)

         :::::::::::::::::::::::::::::::::::::::::::::::::::::
         ::                     SUMMARY                     ::
         :::::::::::::::::::::::::::::::::::::::::::::::::::::
         :: total energy             -23.454965539998 Eh    ::
         :: gradient norm              0.000326090508 Eh/a0 ::
         :: HOMO-LUMO gap              8.373161030467 eV    ::
         ::.................................................::
         :: SCC energy               -23.575206281181 Eh    ::
         :: -> isotropic ES            0.214327969128 Eh    ::
         :: -> anisotropic ES         -0.019927520890 Eh    ::
         :: -> anisotropic XC         -0.005703225741 Eh    ::
         :: -> dispersion             -0.007009429263 Eh    ::
         :: repulsion energy           0.120238626547 Eh    ::
         :: add. restraining           0.000000000546 Eh    ::
         :: total charge              -1.000000000000 e     ::
         :::::::::::::::::::::::::::::::::::::::::::::::::::::

           -------------------------------------------------
          |                Property Printout                |
           -------------------------------------------------

    * Orbital Energies and Occupations

         #    Occupation            Energy/Eh            Energy/eV
      -------------------------------------------------------------
         1        2.0000           -0.5692271             -15.4895
       ...           ...                  ...                  ...
         7        2.0000           -0.3915593             -10.6549
         8        2.0000           -0.3893413             -10.5945
         9        2.0000           -0.3834113             -10.4332
        10        2.0000           -0.3207882              -8.7291
        11        2.0000           -0.3197265              -8.7002
        12        2.0000           -0.3122353              -8.4964
        13        2.0000           -0.2796145              -7.6087
        14        2.0000           -0.2573300              -7.0023
        15        2.0000           -0.2528768              -6.8811
        16        2.0000           -0.2450770              -6.6689
        17        2.0000           -0.2382197              -6.4823
        18        2.0000           -0.2376896              -6.4679
        19        2.0000           -0.2263488              -6.1593 (HOMO)
        20                          0.0813592               2.2139 (LUMO)
        21                          0.1433194               3.8999
        22                          0.1962097               5.3391
        23                          0.2261667               6.1543
        24                          0.2699839               7.3466
        25                          0.3202414               8.7142
        26                          0.3363052               9.1513
        27                          0.3418035               9.3009
        28                          0.4390754              11.9479
        29                          0.4421230              12.0308
        30                          0.9327224              25.3807
       ...                                ...                  ...
        32                          1.4040731              38.2068
      -------------------------------------------------------------
                  HL-Gap            0.3077080 Eh            8.3732 eV
             Fermi-level           -0.0724948 Eh           -1.9727 eV

     #   Z          covCN         q      C6AA      α(0)
     1  16 S        3.633     1.420    95.426    16.441
     2   8 O        0.860    -0.703    28.803     7.196
     3   8 O        0.860    -0.687    28.359     7.140
     4   8 O        1.706    -0.484    22.533     6.409
     5   6 C        3.824     0.075    19.320     6.255
     6   8 O        0.860    -0.687    28.356     7.140
     7   1 H        0.924     0.024     2.671     2.556
     8   1 H        0.924     0.017     2.772     2.604
     9   1 H        0.924     0.026     2.648     2.545

 Mol. C6AA /au·bohr⁶  :       1571.120324
 Mol. C8AA /au·bohr⁸  :      40492.786396
 Mol. α(0) /au        :         58.284444


Wiberg/Mayer (AO) data.
largest (>0.10) Wiberg bond orders for each atom

 ---------------------------------------------------------------------------
     #   Z sym  total        # sym  WBO       # sym  WBO       # sym  WBO
 ---------------------------------------------------------------------------
     1  16 S    5.071 --     6 O    1.435     3 O    1.434     2 O    1.417
                             4 O    0.768
     2   8 O    1.734 --     1 S    1.417     3 O    0.119     6 O    0.119
     3   8 O    1.750 --     1 S    1.434     6 O    0.124     2 O    0.119
     4   8 O    2.021 --     5 C    1.012     1 S    0.768
     5   6 C    3.960 --     4 O    1.012     7 H    0.978     8 H    0.978
                             9 H    0.978
     6   8 O    1.750 --     1 S    1.435     3 O    0.124     2 O    0.119
     7   1 H    0.999 --     5 C    0.978
     8   1 H    1.000 --     5 C    0.978
     9   1 H    0.999 --     5 C    0.978
 ---------------------------------------------------------------------------

Topologies differ in total number of bonds
Writing topology from bond orders to xtbtopo.mol

molecular dipole:
                 x           y           z       tot (Debye)
 q only:        1.279      -0.027      -0.585
   full:        1.547      -0.059      -0.643       4.260
molecular quadrupole (traceless):
                xx          xy          yy          xz          yz          zz
 q only:        2.990      -0.862      -1.392      -0.480       0.223      -1.598
  q+dip:        3.047      -0.556      -0.934       0.476      -0.253      -2.113
   full:        3.618      -0.775      -1.496       0.049       0.029      -2.122

           -------------------------------------------------
          |                Geometry Summary                 |
           -------------------------------------------------

      molecular mass/u    :      111.0969652
   center of mass at/Å    :        0.0171866      -0.1007434       0.0883214
  moments of inertia/u·Å² :        0.9928356E+02   0.1813751E+03   0.1827362E+03
rotational constants/cm⁻¹ :        0.1697928E+00   0.9294348E-01   0.9225120E-01

 * 7 selected distances

     #   Z          #   Z                                           value/Å
     1  16 S        2   8 O                                       1.4537378 (max)
     1  16 S        3   8 O                                       1.4500374
     4   8 O        5   6 C                                       1.3818999
     1  16 S        6   8 O                                       1.4500233
     5   6 C        7   1 H                                       1.0957953
     5   6 C        8   1 H                                       1.0968470
     5   6 C        9   1 H                                       1.0953472 (min)

 * 3 distinct bonds (by element types)

   Z      Z             #   av. dist./Å        max./Å        min./Å
   1 H    6 C           3     1.0959965     1.0968470     1.0953472
   6 C    8 O           1     1.3818999     1.3818999     1.3818999
   8 O   16 S           3     1.4512661     1.4537378     1.4500233


optimized geometry written to: xtbopt.xyz


           -------------------------------------------------
          | TOTAL ENERGY              -23.454965539998 Eh   |
          | GRADIENT NORM               0.000326090508 Eh/α |
          | HOMO-LUMO GAP               8.373161030467 eV   |
           -------------------------------------------------

------------------------------------------------------------------------
 * finished run on 2022/11/03 at 12:55:17.616     
------------------------------------------------------------------------
 total:
 * wall-time:     0 d,  0 h,  0 min,  1.779 sec
 *  cpu-time:     0 d,  0 h,  0 min, 14.197 sec
 * ratio c/w:     7.980 speedup
 SCF:
 * wall-time:     0 d,  0 h,  0 min,  0.252 sec
 *  cpu-time:     0 d,  0 h,  0 min,  2.010 sec
 * ratio c/w:     7.982 speedup
 ANC optimizer:
 * wall-time:     0 d,  0 h,  0 min,  1.474 sec
 *  cpu-time:     0 d,  0 h,  0 min, 11.762 sec
 * ratio c/w:     7.980 speedup

