9
 energy: -23.452209270457 gnorm: 0.057370281788 xtb: 6.5.1 (b24c23e)
S           -0.51522606000000       -0.01549699000000       -0.27468182000000
O           -1.18701679000000        1.21439550000000       -0.74265942000000
O           -0.99097754000000       -1.28189014000000       -0.86908187000000
O            1.02171896000000        0.14012208000000       -0.97743416000000
C            2.08496737000000       -0.46368124000000       -0.24614013000000
O           -0.25623971000000       -0.06028261000000        1.18162190000000
H            1.90044480000000       -1.53407278000000       -0.16326520000000
H            3.02615348000000       -0.29520511000000       -0.77141105000000
H            2.14186149000000       -0.02868371000000        0.75011876000000
9
 energy: -23.456063048672 gnorm: 0.032366170452 xtb: 6.5.1 (b24c23e)
S           -0.47682754647362       -0.02091571081166       -0.28172697131825
O           -1.16811704313427        1.19129086752744       -0.72592296544168
O           -0.97571793275316       -1.27708650241177       -0.85148953125976
O            1.04504048233084        0.15206923806036       -0.99900030435482
C            2.05743149642030       -0.45858948561394       -0.24581149242698
O           -0.20996441928742       -0.06722081098628        1.16189713419694
H            1.86157895422202       -1.53087098910186       -0.16165152623042
H            3.00372310124406       -0.28914268493999       -0.76516382532262
H            2.08853890743126       -0.02432892172230        0.75593649215759
9
 energy: -23.457564405198 gnorm: 0.006166043828 xtb: 6.5.1 (b24c23e)
S           -0.43904190716365       -0.02474478455091       -0.28932268731559
O           -1.15795206674151        1.16329580055971       -0.70479877891832
O           -0.95696394214969       -1.27064902000255       -0.82884096309411
O            1.06214491405614        0.16809855691007       -1.02683286858830
C            2.02687842246674       -0.44735333623770       -0.25236723940699
O           -0.15953943469955       -0.07227103299082        1.13793374132856
H            1.82003391629844       -1.52106647155492       -0.16429995443855
H            2.99551954994084       -0.29525433642997       -0.74226416216546
H            2.03460654799224       -0.02485037570291        0.75785992259876
9
 energy: -23.457599374537 gnorm: 0.003470471557 xtb: 6.5.1 (b24c23e)
S           -0.44098127340289       -0.02374853072299       -0.28966258602004
O           -1.16185512805865        1.16261024218168       -0.70353373096082
O           -0.95591691206447       -1.26986592660088       -0.82821979936554
O            1.06029870276338        0.16843678007514       -1.02625346114902
C            2.02832374085476       -0.44642379538730       -0.25341521842766
O           -0.16257195510650       -0.07187863863307        1.13717649762285
H            1.81993424844428       -1.52041844338785       -0.16621168543236
H            3.00020228712170       -0.29953413552982       -0.73876805215705
H            2.03825228944839       -0.02397255199491        0.75595504588963
9
 energy: -23.457605155834 gnorm: 0.002075283087 xtb: 6.5.1 (b24c23e)
S           -0.44161485596208       -0.02286463221703       -0.29007843883836
O           -1.16359445027896        1.16247265336737       -0.70240411762079
O           -0.95381201127167       -1.26958695486104       -0.82783044152648
O            1.05930562625773        0.16872903750005       -1.02646370246091
C            2.02819802095273       -0.44635929274481       -0.25369420729116
O           -0.16280554249668       -0.07153897236901        1.13641523945553
H            1.82008788538189       -1.52078563959709       -0.16684070628252
H            3.00122321867816       -0.30133874028820       -0.73703764836802
H            2.03869810873889       -0.02352245879024        0.75500103293271
9
 energy: -23.457606524308 gnorm: 0.000794309842 xtb: 6.5.1 (b24c23e)
S           -0.44144963737878       -0.02261293237851       -0.29020916436782
O           -1.16371423884554        1.16240448507675       -0.70221331954901
O           -0.95223833599474       -1.26996299393094       -0.82742608107500
O            1.05927728959788        0.16886011280276       -1.02653682104929
C            2.02820678388204       -0.44644932211239       -0.25376243960535
O           -0.16249954391779       -0.07114503398952        1.13633849036759
H            1.81895146967521       -1.52065758884392       -0.16727492710507
H            3.00109750601701       -0.30135204615005       -0.73698918872701
H            2.03805470696469       -0.02387968047418        0.75514046111096
