Generated by Psi4
        SP                        DF-MP2                      6-311G**
Number of atoms                            I               11
Charge                                     I               -1
Multiplicity                               I                1
Number of electrons                        I               58
Number of alpha electrons                  I               29
Number of beta electrons                   I               29
Number of basis functions                  I              146
Number of independent functions            I              146
Atomic numbers                             I   N=          11
           6           6          16           8           8           8
           1           1           1           1           1
Nuclear charges                            R   N=          11
  6.00000000e+00  6.00000000e+00  1.60000000e+01  8.00000000e+00  8.00000000e+00
  8.00000000e+00  1.00000000e+00  1.00000000e+00  1.00000000e+00  1.00000000e+00
  1.00000000e+00
Current cartesian coordinates              R   N=          33
 -2.04294623e+00 -1.71112506e+00 -2.70226465e-02 -4.34647958e+00 -3.63377772e-02
  3.27154283e-01  8.49163636e-01  1.03050938e-01 -5.36654650e-02  8.88656643e-01
  1.36504743e+00  2.46188151e+00  2.85439659e+00 -1.83320187e+00 -4.13044830e-01
  5.31653149e-01  1.86523959e+00 -2.22532150e+00 -1.86501883e+00 -3.09178289e+00
  1.50170578e+00 -2.11804771e+00 -2.73721967e+00 -1.82044972e+00 -4.18553161e+00
  9.91732882e-01  2.10928515e+00 -4.43778777e+00  1.34527257e+00 -1.20308777e+00
 -6.09723179e+00 -1.14318797e+00  3.42346928e-01
Integer atomic weights                     I   N=          11
          12          12          32          16          16          16
           1           1           1           1           1
Real atomic weights                        R   N=          11
  1.20000000e+01  1.20000000e+01  3.19720712e+01  1.59949146e+01  1.59949146e+01
  1.59949146e+01  1.00782503e+00  1.00782503e+00  1.00782503e+00  1.00782503e+00
  1.00782503e+00
Number of primitive shells                 I              138
Number of contracted shells                I               72
Pure/Cartesian d shells                    I                0
Pure/Cartesian f shells                    I                0
Highest angular momentum                   I                2
Largest degree of contraction              I                6
Shell types                                I   N=          72
           0           0           1           0           1           0
           1          -2           0           0           1           0
           1           0           1          -2           0           0
           0           0           0           0           1           1
           1           1           1          -2           0           0
           1           0           1           0           1          -2
           0           0           1           0           1           0
           1          -2           0           0           1           0
           1           0           1          -2           0           0
           0           1           0           0           0           1
           0           0           0           1           0           0
           0           1           0           0           0           1
Number of primitives per shell             I   N=          72
           6           3           3           1           1           1
           1           1           6           3           3           1
           1           1           1           1           6           3
           1           1           1           1           4           2
           1           1           1           1           6           3
           3           1           1           1           1           1
           6           3           3           1           1           1
           1           1           6           3           3           1
           1           1           1           1           3           1
           1           1           3           1           1           1
           3           1           1           1           3           1
           1           1           3           1           1           1
Shell to atom map                          I   N=          72
           1           1           1           1           1           1
           1           1           2           2           2           2
           2           2           2           2           3           3
           3           3           3           3           3           3
           3           3           3           3           4           4
           4           4           4           4           4           4
           5           5           5           5           5           5
           5           5           6           6           6           6
           6           6           6           6           7           7
           7           7           8           8           8           8
           9           9           9           9          10          10
          10          10          11          11          11          11
Primitive exponents                        R   N=         138
  4.56324000e+03  6.82024000e+02  1.54973000e+02  4.44553000e+01  1.30290000e+01
  1.82773000e+00  2.09642000e+01  4.80331000e+00  1.45933000e+00  2.09642000e+01
  4.80331000e+00  1.45933000e+00  4.83456000e-01  4.83456000e-01  1.45585000e-01
  1.45585000e-01  6.26000000e-01  4.56324000e+03  6.82024000e+02  1.54973000e+02
  4.44553000e+01  1.30290000e+01  1.82773000e+00  2.09642000e+01  4.80331000e+00
  1.45933000e+00  2.09642000e+01  4.80331000e+00  1.45933000e+00  4.83456000e-01
  4.83456000e-01  1.45585000e-01  1.45585000e-01  6.26000000e-01  9.34134000e+04
  1.39617000e+04  3.16991000e+03  9.02456000e+02  2.97158000e+02  1.08702000e+02
  1.08702000e+02  4.31553000e+01  1.81079000e+01  5.56009000e+00  2.13183000e+00
  4.20403000e-01  1.36045000e-01  4.95040000e+02  1.17221000e+02  3.77749000e+01
  1.40584000e+01  5.56574000e+00  2.26297000e+00  8.07994000e-01  2.77460000e-01
  7.71410000e-02  6.50000000e-01  8.58850000e+03  1.29723000e+03  2.99296000e+02
  8.73771000e+01  2.56789000e+01  3.74004000e+00  4.21175000e+01  9.62837000e+00
  2.85332000e+00  4.21175000e+01  9.62837000e+00  2.85332000e+00  9.05661000e-01
  9.05661000e-01  2.55611000e-01  2.55611000e-01  1.29200000e+00  8.58850000e+03
  1.29723000e+03  2.99296000e+02  8.73771000e+01  2.56789000e+01  3.74004000e+00
  4.21175000e+01  9.62837000e+00  2.85332000e+00  4.21175000e+01  9.62837000e+00
  2.85332000e+00  9.05661000e-01  9.05661000e-01  2.55611000e-01  2.55611000e-01
  1.29200000e+00  8.58850000e+03  1.29723000e+03  2.99296000e+02  8.73771000e+01
  2.56789000e+01  3.74004000e+00  4.21175000e+01  9.62837000e+00  2.85332000e+00
  4.21175000e+01  9.62837000e+00  2.85332000e+00  9.05661000e-01  9.05661000e-01
  2.55611000e-01  2.55611000e-01  1.29200000e+00  3.38650000e+01  5.09479000e+00
  1.15879000e+00  3.25840000e-01  1.02741000e-01  7.50000000e-01  3.38650000e+01
  5.09479000e+00  1.15879000e+00  3.25840000e-01  1.02741000e-01  7.50000000e-01
  3.38650000e+01  5.09479000e+00  1.15879000e+00  3.25840000e-01  1.02741000e-01
  7.50000000e-01  3.38650000e+01  5.09479000e+00  1.15879000e+00  3.25840000e-01
  1.02741000e-01  7.50000000e-01  3.38650000e+01  5.09479000e+00  1.15879000e+00
  3.25840000e-01  1.02741000e-01  7.50000000e-01
Contraction coefficients                   R   N=         138
  1.96665025e-03  1.52306019e-02  7.61269097e-02  2.60801033e-01  6.16462078e-01
  2.21006028e-01  1.14660081e-01  9.19999648e-01 -3.03068213e-03  4.02486927e-02
  2.37593957e-01  8.15853851e-01  1.00000000e+00  1.00000000e+00  1.00000000e+00
  1.00000000e+00  1.00000000e+00  1.96665025e-03  1.52306019e-02  7.61269097e-02
  2.60801033e-01  6.16462078e-01  2.21006028e-01  1.14660081e-01  9.19999648e-01
 -3.03068213e-03  4.02486927e-02  2.37593957e-01  8.15853851e-01  1.00000000e+00
  1.00000000e+00  1.00000000e+00  1.00000000e+00  1.00000000e+00  7.42999957e-04
  5.79299966e-03  2.99539983e-02  1.19027993e-01  3.68431979e-01  5.77298966e-01
  1.43186060e-01  6.24465262e-01  2.83366119e-01  1.00000000e+00  1.00000000e+00
  1.00000000e+00  1.00000000e+00  8.30900251e-03  6.40240194e-02  2.77614084e-01
  7.45076225e-01  6.13711672e-01  4.43817763e-01  1.00000000e+00  1.00000000e+00
  1.00000000e+00  1.00000000e+00  1.89515008e-03  1.43859006e-02  7.07320031e-02
  2.40001011e-01  5.94797026e-01  2.80802012e-01  1.13889012e-01  9.20811101e-01
 -3.27447036e-03  3.65113974e-02  2.37152983e-01  8.19701941e-01  1.00000000e+00
  1.00000000e+00  1.00000000e+00  1.00000000e+00  1.00000000e+00  1.89515008e-03
  1.43859006e-02  7.07320031e-02  2.40001011e-01  5.94797026e-01  2.80802012e-01
  1.13889012e-01  9.20811101e-01 -3.27447036e-03  3.65113974e-02  2.37152983e-01
  8.19701941e-01  1.00000000e+00  1.00000000e+00  1.00000000e+00  1.00000000e+00
  1.00000000e+00  1.89515008e-03  1.43859006e-02  7.07320031e-02  2.40001011e-01
  5.94797026e-01  2.80802012e-01  1.13889012e-01  9.20811101e-01 -3.27447036e-03
  3.65113974e-02  2.37152983e-01  8.19701941e-01  1.00000000e+00  1.00000000e+00
  1.00000000e+00  1.00000000e+00  1.00000000e+00  2.54938145e-02  1.90373109e-01
  8.52161486e-01  1.00000000e+00  1.00000000e+00  1.00000000e+00  2.54938145e-02
  1.90373109e-01  8.52161486e-01  1.00000000e+00  1.00000000e+00  1.00000000e+00
  2.54938145e-02  1.90373109e-01  8.52161486e-01  1.00000000e+00  1.00000000e+00
  1.00000000e+00  2.54938145e-02  1.90373109e-01  8.52161486e-01  1.00000000e+00
  1.00000000e+00  1.00000000e+00  2.54938145e-02  1.90373109e-01  8.52161486e-01
  1.00000000e+00  1.00000000e+00  1.00000000e+00
Coordinates of each shell                  R   N=         216
 -2.04294623e+00 -1.71112506e+00 -2.70226465e-02 -2.04294623e+00 -1.71112506e+00
 -2.70226465e-02 -2.04294623e+00 -1.71112506e+00 -2.70226465e-02 -2.04294623e+00
 -1.71112506e+00 -2.70226465e-02 -2.04294623e+00 -1.71112506e+00 -2.70226465e-02
 -2.04294623e+00 -1.71112506e+00 -2.70226465e-02 -2.04294623e+00 -1.71112506e+00
 -2.70226465e-02 -2.04294623e+00 -1.71112506e+00 -2.70226465e-02 -4.34647958e+00
 -3.63377772e-02  3.27154283e-01 -4.34647958e+00 -3.63377772e-02  3.27154283e-01
 -4.34647958e+00 -3.63377772e-02  3.27154283e-01 -4.34647958e+00 -3.63377772e-02
  3.27154283e-01 -4.34647958e+00 -3.63377772e-02  3.27154283e-01 -4.34647958e+00
 -3.63377772e-02  3.27154283e-01 -4.34647958e+00 -3.63377772e-02  3.27154283e-01
 -4.34647958e+00 -3.63377772e-02  3.27154283e-01  8.49163636e-01  1.03050938e-01
 -5.36654650e-02  8.49163636e-01  1.03050938e-01 -5.36654650e-02  8.49163636e-01
  1.03050938e-01 -5.36654650e-02  8.49163636e-01  1.03050938e-01 -5.36654650e-02
  8.49163636e-01  1.03050938e-01 -5.36654650e-02  8.49163636e-01  1.03050938e-01
 -5.36654650e-02  8.49163636e-01  1.03050938e-01 -5.36654650e-02  8.49163636e-01
  1.03050938e-01 -5.36654650e-02  8.49163636e-01  1.03050938e-01 -5.36654650e-02
  8.49163636e-01  1.03050938e-01 -5.36654650e-02  8.49163636e-01  1.03050938e-01
 -5.36654650e-02  8.49163636e-01  1.03050938e-01 -5.36654650e-02  8.88656643e-01
  1.36504743e+00  2.46188151e+00  8.88656643e-01  1.36504743e+00  2.46188151e+00
  8.88656643e-01  1.36504743e+00  2.46188151e+00  8.88656643e-01  1.36504743e+00
  2.46188151e+00  8.88656643e-01  1.36504743e+00  2.46188151e+00  8.88656643e-01
  1.36504743e+00  2.46188151e+00  8.88656643e-01  1.36504743e+00  2.46188151e+00
  8.88656643e-01  1.36504743e+00  2.46188151e+00  2.85439659e+00 -1.83320187e+00
 -4.13044830e-01  2.85439659e+00 -1.83320187e+00 -4.13044830e-01  2.85439659e+00
 -1.83320187e+00 -4.13044830e-01  2.85439659e+00 -1.83320187e+00 -4.13044830e-01
  2.85439659e+00 -1.83320187e+00 -4.13044830e-01  2.85439659e+00 -1.83320187e+00
 -4.13044830e-01  2.85439659e+00 -1.83320187e+00 -4.13044830e-01  2.85439659e+00
 -1.83320187e+00 -4.13044830e-01  5.31653149e-01  1.86523959e+00 -2.22532150e+00
  5.31653149e-01  1.86523959e+00 -2.22532150e+00  5.31653149e-01  1.86523959e+00
 -2.22532150e+00  5.31653149e-01  1.86523959e+00 -2.22532150e+00  5.31653149e-01
  1.86523959e+00 -2.22532150e+00  5.31653149e-01  1.86523959e+00 -2.22532150e+00
  5.31653149e-01  1.86523959e+00 -2.22532150e+00  5.31653149e-01  1.86523959e+00
 -2.22532150e+00 -1.86501883e+00 -3.09178289e+00  1.50170578e+00 -1.86501883e+00
 -3.09178289e+00  1.50170578e+00 -1.86501883e+00 -3.09178289e+00  1.50170578e+00
 -1.86501883e+00 -3.09178289e+00  1.50170578e+00 -2.11804771e+00 -2.73721967e+00
 -1.82044972e+00 -2.11804771e+00 -2.73721967e+00 -1.82044972e+00 -2.11804771e+00
 -2.73721967e+00 -1.82044972e+00 -2.11804771e+00 -2.73721967e+00 -1.82044972e+00
 -4.18553161e+00  9.91732882e-01  2.10928515e+00 -4.18553161e+00  9.91732882e-01
  2.10928515e+00 -4.18553161e+00  9.91732882e-01  2.10928515e+00 -4.18553161e+00
  9.91732882e-01  2.10928515e+00 -4.43778777e+00  1.34527257e+00 -1.20308777e+00
 -4.43778777e+00  1.34527257e+00 -1.20308777e+00 -4.43778777e+00  1.34527257e+00
 -1.20308777e+00 -4.43778777e+00  1.34527257e+00 -1.20308777e+00 -6.09723179e+00
 -1.14318797e+00  3.42346928e-01 -6.09723179e+00 -1.14318797e+00  3.42346928e-01
 -6.09723179e+00 -1.14318797e+00  3.42346928e-01 -6.09723179e+00 -1.14318797e+00
  3.42346928e-01
Total Energy                               R     -7.018783489013658e+02
Alpha Orbital Energies                     R   N=         146
 -9.19921355e+01 -2.03279923e+01 -2.03279692e+01 -2.03273740e+01 -1.10986134e+01
 -1.10893391e+01 -8.96376855e+00 -6.64915771e+00 -6.64912609e+00 -6.64844607e+00
 -1.26004930e+00 -1.11124983e+00 -1.11090866e+00 -9.06821865e-01 -7.41726711e-01
 -6.04227625e-01 -4.99592839e-01 -4.91236973e-01 -4.54684429e-01 -4.43251870e-01
 -4.15749107e-01 -3.83653247e-01 -3.63177017e-01 -3.12505527e-01 -3.12479474e-01
 -2.67719095e-01 -2.67603944e-01 -2.42936865e-01 -2.27292547e-01  2.83844604e-01
  3.32468887e-01  3.40856800e-01  3.51455471e-01  3.89104740e-01  4.34699348e-01
  4.64154575e-01  4.70932867e-01  4.88902385e-01  5.07902165e-01  5.56467272e-01
  5.82828220e-01  5.90962486e-01  6.19633374e-01  6.32656711e-01  7.07822054e-01
  7.31335661e-01  7.37723591e-01  8.97041624e-01  9.05306084e-01  9.29750167e-01
  9.30823342e-01  9.50424308e-01  9.67965462e-01  9.89357692e-01  1.10087634e+00
  1.12914105e+00  1.13808101e+00  1.17029633e+00  1.17527912e+00  1.19321356e+00
  1.23230469e+00  1.33887472e+00  1.35816113e+00  1.38088737e+00  1.39494503e+00
  1.41379949e+00  1.41781382e+00  1.43067181e+00  1.46635596e+00  1.53606588e+00
  1.62292496e+00  1.63485091e+00  1.64944084e+00  1.74882232e+00  1.78790304e+00
  1.83753228e+00  1.85410518e+00  1.86369980e+00  1.90965761e+00  1.94077718e+00
  1.96739930e+00  2.01590054e+00  2.07257820e+00  2.08288552e+00  2.14837459e+00
  2.15870786e+00  2.22608270e+00  2.30478373e+00  2.32818388e+00  2.33039413e+00
  2.44547742e+00  2.46021133e+00  2.50321245e+00  2.57820271e+00  2.72266108e+00
  2.76090797e+00  2.86644456e+00  2.86709813e+00  2.96203665e+00  2.96844454e+00
  2.97501723e+00  3.06643986e+00  3.08450236e+00  3.11575627e+00  3.15244654e+00
  3.26472097e+00  3.35275680e+00  3.41230903e+00  3.41750366e+00  3.42508798e+00
  3.43408868e+00  3.43674283e+00  3.44917578e+00  3.53559995e+00  3.55307135e+00
  3.56388479e+00  3.69734643e+00  3.73668294e+00  3.74880833e+00  3.86011931e+00
  4.01083159e+00  4.13158355e+00  4.13607797e+00  4.29478868e+00  4.33065425e+00
  4.34542740e+00  4.71201743e+00  5.61189935e+00  5.61545061e+00  5.63513028e+00
  5.63522221e+00  5.64256878e+00  5.64886169e+00  5.74301644e+00  5.94466471e+00
  5.95203980e+00  8.73729506e+00  1.85101579e+01  1.86202247e+01  1.86361766e+01
  2.51263115e+01  2.52153219e+01  5.17081898e+01  5.17206112e+01  5.18158556e+01
  1.92447071e+02
Alpha MO coefficients                      R   N=       21316
  2.66449513e-07  4.11474439e-07  9.82081713e-06  7.45401974e-06  4.76293858e-08
  2.42330083e-06 -2.33127840e-05 -2.18009580e-05 -5.51371465e-07  1.30931620e-05
  6.13153303e-05  5.70639102e-06 -4.06096312e-06  1.00563771e-05  6.27347052e-07
 -2.42370785e-07 -6.96262268e-06 -1.15729042e-05 -5.52504412e-07  1.57117475e-06
  2.11813047e-06 -1.32042632e-06 -3.02242454e-07 -1.36930014e-05 -1.13246583e-05
  8.51047345e-06  1.77087202e-06  7.70276293e-05  5.89370212e-05  7.50374766e-06
 -3.68708034e-06  1.54705313e-06  5.33529777e-07 -3.18032816e-07 -1.28473621e-06
  2.11694894e-06  4.11076194e-01  6.54984414e-01  1.21773454e-02 -1.40042370e-03
  4.76750905e-04 -2.76051568e-04  6.78667325e-06  4.69831678e-06 -1.45128639e-08
 -9.95783176e-07 -1.71451555e-06 -1.07311063e-07 -4.73855592e-06  1.45261159e-06
  5.15947457e-07  2.20171106e-05  2.06869519e-06 -1.45547407e-06  6.21743893e-05
  2.34027991e-05 -2.23650477e-06  4.79114509e-06 -1.01705295e-07  3.71990559e-07
 -4.53750961e-06 -1.00799644e-05 -3.51145179e-07  3.78216714e-06 -4.82058228e-07
 -3.89274822e-06 -6.67750976e-06 -5.97341815e-06  1.85485971e-06  1.37185223e-05
  2.38939872e-05  1.44159387e-05 -7.78972926e-06  1.42310525e-06  1.01919236e-05
 -1.60524048e-05  1.23182723e-07 -1.65752781e-05  3.47151719e-06 -3.92013776e-07
 -1.91407785e-07  2.98326322e-06 -6.58723650e-06  5.11402540e-06  1.04747001e-06
 -1.93674582e-07  2.32142172e-05 -1.83068709e-05 -3.72178786e-06 -8.24012871e-06
  4.58895004e-06 -1.60526919e-05 -2.06321872e-06  1.22177728e-05  3.87535308e-06
 -3.79434049e-06 -7.21741811e-07  2.01941514e-05 -3.51143719e-07  3.78215411e-06
  4.61299098e-07 -5.21430185e-06  5.70711897e-06 -5.97370219e-06 -1.52553402e-06
  1.84540535e-05 -2.04851806e-05  1.44181435e-05 -9.20374706e-06  3.40482915e-06
 -8.38224025e-06 -8.64475256e-06 -3.96711589e-06  1.98930530e-05  7.07546706e-06
  2.89157557e-06 -3.23879621e-06 -9.91478908e-06  2.19683913e-05  3.21753564e-06
 -2.69574188e-07  5.17546592e-06 -3.23885321e-06 -9.91480935e-06  2.19685175e-05
  2.40145252e-06  8.73860683e-07 -5.53895176e-06  3.06086235e-06 -2.81017865e-05
  9.02494401e-06 -2.47393626e-06  4.08217915e-07  5.42814040e-06  3.06075819e-06
 -2.81013089e-05  9.02554028e-06 -3.25189722e-06  1.49855893e-06 -4.78848908e-06
 -3.28641785e-06  1.08295331e-05  1.08686789e-05  6.16530241e-08 -4.80363712e-07
 -5.59942354e-08  9.89396330e-08  2.08802309e-07  4.72333237e-07 -1.12877490e-07
  4.83332652e-06  3.18240620e-07 -4.40224741e-06 -1.51662287e-06 -1.83610392e-05
 -1.03664663e-05 -5.41110586e-06  8.46313461e-06 -8.57829181e-05  7.81611252e-07
 -1.22869868e-05 -7.31615078e-06 -1.40582940e-06 -4.34644879e-08  3.44452930e-08
 -3.06025629e-08 -7.77993773e-09  1.15311535e-07 -8.41390107e-07  1.61821406e-06
  6.61917274e-07 -7.39070338e-07  3.34373820e-06 -6.57136373e-06 -5.34021258e-07
 -1.15274521e-05  5.53910246e-05  1.36100386e-07  1.67785809e-06  2.30570474e-06
  3.74367291e-07 -4.71380903e-07  4.25249875e-07  1.00864913e-06 -6.44602655e-07
 -1.03590057e-05  8.32220453e-06  5.05694784e-05 -9.34302221e-07  6.54474011e-07
 -1.29725515e-05 -5.94614053e-06  4.07832994e-06 -7.95739960e-05  1.06790906e-05
 -6.61775763e-06  1.32855612e-04  1.75708863e-05 -1.20914171e-05  2.48975921e-04
  1.69283280e-05 -1.74592392e-05  3.08078527e-04  4.13251912e-05 -8.43414989e-06
  1.60286965e-04  1.19834330e-05  1.27858841e-05  4.19949257e-01  3.59183811e-01
 -3.63118622e-05 -5.60572570e-04 -1.12009595e-03  4.10193792e-03  1.29007408e-05
  1.67411927e-04  3.57901526e-04 -3.56317646e-04 -1.71922567e-05  1.44289369e-05
 -9.72655527e-05 -3.84138432e-05  6.67842146e-06 -4.27056446e-05  5.16704517e-06
 -2.01534073e-06 -1.16929389e-03 -1.00018153e-03  1.90589207e-06 -1.83896411e-06
 -1.53194926e-05 -1.02924380e-05  7.51584653e-08 -7.35556004e-07  2.64786091e-05
 -4.25986688e-06 -5.67607893e-06  5.86265486e-06 -1.25078865e-04 -2.63312609e-06
  5.24840892e-06 -8.88010930e-06 -2.30412543e-07 -1.39154583e-06 -3.57466175e-01
 -3.05742119e-01 -1.04509297e-04  6.66418939e-04 -8.28683825e-04 -3.48841079e-03
  3.14764632e-05 -2.02297146e-04  2.70684058e-04  2.89218826e-04  3.94993356e-06
 -1.18219698e-07 -1.08834183e-04  1.36030386e-05  1.26958862e-05 -4.39071686e-05
 -1.19643278e-05 -6.82299089e-06 -2.22250523e-06  3.03409467e-05 -6.60715008e-05
 -7.81926272e-06 -3.88674720e-06  1.43040804e-06  2.93281120e-06 -3.33018128e-05
  7.43778263e-05  7.38814862e-06  2.82996848e-06  5.81547216e-07  5.23459338e-06
 -3.89081047e-05  8.30358088e-06  1.90240092e-07  3.52916622e-06 -8.81200683e-07
 -5.54987936e-06  4.33646666e-05 -4.74798459e-06  4.53637481e-08 -3.70707776e-06
 -1.83827733e-07  5.09791300e-08 -3.93865493e-07 -3.27897552e-06 -3.67087357e-07
  7.80155208e-07 -5.86294951e-06  1.22918869e-06  2.59810161e-06  1.30353183e-06
  5.01368310e-06  4.31899835e-08  3.92913659e-06 -3.73793156e-05 -4.32210173e-05
 -2.75276209e-07 -1.28717430e-04  1.43093296e-05 -9.00426466e-06  4.94504474e-06
  6.21685738e-06  4.62431548e-07 -2.14915331e-07  3.87931983e-06 -1.00283783e-05
  4.28592713e-07 -3.80419507e-07  7.02878318e-07  3.13083440e-07  4.84129796e-08
  2.01530304e-05  4.98080190e-06 -4.64196392e-06 -1.15328529e-06 -8.20115640e-05
 -5.98461017e-05 -6.90704946e-05 -7.36036933e-06 -7.18581399e-07 -8.51260665e-07
  3.95049933e-07 -2.16300758e-08 -5.71356109e-06  5.28458714e-06  1.25359060e-05
 -8.02076745e-06 -1.28709309e-04  1.03328221e-04  6.28647688e-04  6.79423529e-07
 -9.08911673e-06  3.26121397e-08  1.51617689e-06 -5.49879793e-05  4.85234487e-07
  6.77296310e-06  9.42341088e-05 -1.26249864e-06 -1.74174523e-05  1.80177420e-04
  3.25850172e-07 -8.13742528e-05  1.91755313e-04  1.63964921e-06  1.17006056e-04
  2.00131348e-05 -2.84922504e-05 -5.85145280e-05 -1.19103706e-05  3.57309927e-01
  3.05606535e-01 -2.76078933e-05 -4.84510919e-04 -9.36019323e-04  3.51018086e-03
  5.08751274e-07  1.55163038e-04  2.79203615e-04 -3.91292252e-04  2.02861167e-05
 -5.41694098e-05  5.33358046e-05 -4.05717695e-05  3.93732487e-06 -2.83467573e-05
  2.96165549e-06 -2.78108502e-06 -1.51091465e-02 -1.29239055e-02  3.89486556e-05
 -4.36941905e-05 -6.42602924e-06 -1.33546504e-04 -2.43318114e-05  2.60910847e-05
  2.50283504e-06 -5.25207558e-05  4.76967623e-05 -9.27856661e-05 -3.39423598e-06
 -2.89827625e-06 -1.31809326e-06  9.92172907e-07  4.04436253e-06 -1.49506716e-06
  4.19814628e-01  3.59067008e-01  1.23421216e-04 -7.87073648e-04  9.51479715e-04
  4.12044698e-03 -4.44300110e-05  2.45753503e-04 -2.84186084e-04 -4.43188710e-04
  1.07083465e-05 -4.19591274e-05 -4.91791809e-05 -2.80270749e-05 -1.57624219e-05
  4.69922819e-05  1.09584481e-05  5.54411510e-06  4.62101130e-06 -2.09684467e-05
  5.73333804e-05 -2.85410005e-06 -5.19820879e-06  2.10624555e-06  4.20736960e-06
 -1.58581693e-05  4.60393624e-05 -4.45770435e-06 -5.20524766e-06 -2.82804896e-06
 -2.40370592e-06  3.10991743e-05  2.15534982e-05  1.26138923e-06 -1.11535969e-06
 -9.25941652e-06 -1.53671923e-06  2.44859272e-05  2.26050562e-05  2.64209788e-06
 -2.45296777e-06  8.66419296e-06  6.33381590e-07 -4.90752838e-06 -4.08084289e-05
  1.03597083e-06  1.85123334e-06  5.98768053e-07  1.16238414e-06  1.03315388e-06
 -1.68071670e-06 -2.73564628e-06 -1.64403034e-07  1.45155706e-05 -1.39363825e-05
 -6.58551643e-06  3.60362260e-07 -1.88153602e-04 -6.00592722e-05 -6.29837300e-05
 -2.13835517e-06  8.19154181e-06  2.75736865e-06 -4.08128863e-08 -1.66377213e-05
  3.67443051e-06 -2.17892083e-07  3.83329650e-07  3.19757192e-06 -1.35258602e-06
 -3.87776186e-07 -1.68245963e-05 -9.16284762e-06  9.97343190e-06  1.76186883e-06
  1.10420033e-04  1.43156233e-04  2.99017581e-05 -7.71672988e-06  4.81136207e-06
 -1.74574222e-09  8.19171922e-08 -3.21109628e-06 -8.24528234e-06  4.03847894e-06
  8.89360409e-06 -1.19923542e-06 -1.08639882e-04  1.13664570e-04  4.40771404e-04
 -8.07824357e-06  7.35175478e-06  1.40097656e-06 -5.18625816e-05  4.22962960e-05
  8.47057243e-06  9.44428103e-05 -6.37226609e-05 -1.40040376e-05  1.28693700e-04
 -1.64060598e-04 -2.73348557e-05  1.89478540e-04 -2.26961470e-04 -3.86836384e-05
 -6.96954096e-05 -2.38270382e-05  2.22663919e-05  7.85884689e-06 -1.28517892e-04
  1.06857342e-02  9.13939534e-03 -8.40623233e-06 -3.37413027e-06 -2.29609353e-05
  1.08966739e-04  9.58321912e-06 -1.57770600e-05  3.47396037e-06 -3.30106209e-05
 -6.62087336e-05  8.55382714e-05  1.91838932e-05  3.87394793e-06  4.74988001e-06
 -3.86488703e-06  8.19416334e-07  5.31314592e-06  5.51281583e-01  4.71511108e-01
 -1.17348607e-03  1.12229538e-03  2.09169958e-04  5.40767543e-03  3.61269438e-04
 -3.52156070e-04 -6.51078746e-05 -5.42893819e-04 -3.88878133e-05  3.47165185e-05
  6.68042082e-06  4.20972303e-05  1.16087557e-05 -1.32537455e-05  6.39464544e-06
  5.96481226e-05  1.07498858e-02  9.19426428e-03 -4.90680199e-06 -8.37028973e-06
  2.28845364e-05  1.09594318e-04  8.69507440e-06 -1.45041749e-05 -8.15135620e-06
 -3.30718222e-05 -6.69596052e-05  8.65897762e-05  9.34554720e-06  5.72842859e-06
 -2.31562943e-06  9.75437119e-07  8.05342210e-07  6.45372454e-06  3.09611621e-06
 -6.17109552e-06 -2.45353604e-05 -3.10745091e-06 -3.22228056e-06  5.63440852e-06
  3.09542109e-06 -6.16373958e-06 -2.45471036e-05 -3.96851281e-06 -2.01760398e-06
 -5.65466110e-06  6.48756622e-06 -5.44814856e-05  4.67572389e-05 -2.87026507e-06
 -2.69545790e-07  8.98284322e-06  6.48851728e-06 -5.44889377e-05  4.67568303e-05
 -4.18692891e-06  1.57650979e-06 -8.30591715e-06 -3.29813466e-06  3.34469179e-05
  2.26661087e-05  4.82589118e-07  6.19440983e-06  6.24971350e-07  5.63065633e-01
  4.66270257e-01 -6.64216226e-05  3.32374653e-05  8.61158630e-06  4.38187415e-03
  1.22193023e-04  2.36859550e-06 -9.05585767e-06 -2.04291861e-03  2.89075144e-05
 -2.82280648e-04 -3.23184637e-05  6.21513512e-05  1.10295902e-05 -7.31328155e-06
 -3.89982225e-05 -2.46442156e-06  1.91009181e-02  1.57587620e-02  9.19971269e-05
 -7.82819439e-05 -1.53611003e-05  3.70921927e-04  2.83002637e-04 -2.14522204e-04
 -4.44481045e-05  6.98776646e-04  2.35595289e-04 -2.08683817e-04 -4.02176558e-05
 -8.45074674e-05 -2.70033824e-05  1.98251229e-05  4.55061307e-05 -1.13121511e-04
 -3.32053202e-07 -2.31091832e-06  1.43243610e-05 -9.07509059e-05  1.45390252e-04
  6.09928312e-04  1.26029712e-05  7.58796440e-06 -1.50155519e-07  5.58954166e-05
  3.70140454e-05 -3.07012556e-07 -1.08126931e-04 -8.02946377e-05 -3.33819749e-07
 -3.31637887e-04 -1.73685953e-04  6.72257993e-06 -8.47468920e-05 -1.63042583e-05
  4.71215047e-06 -9.69137993e-05 -3.33305078e-06 -2.09620008e-06  8.23699918e-05
  1.47365374e-04  2.43423191e-06  3.80016569e-06  1.79878587e-06  2.53780295e-06
  6.98168606e-06 -9.26033558e-06  2.78463661e-05  2.52851940e-05 -5.21092538e-07
 -6.44625013e-05 -9.03516597e-06 -1.56962397e-05  1.84785271e-05  4.37488377e-06
 -5.58538314e-06  3.63242128e-06  1.33772695e-06  9.66451729e-07  2.28721681e-06
  2.36226633e-06  9.97335399e-06 -3.42024922e-06 -1.12474560e-06  1.99493541e-06
  1.44647955e-05  1.48401743e-05  4.82040942e-07 -6.67707975e-05  2.88539907e-05
 -7.57777586e-06 -3.00648371e-06 -4.03762737e-06 -5.28532775e-07  1.62065841e-06
 -5.37574408e-06 -3.64658635e-06  2.43429895e-06  3.80047593e-06  7.72982296e-07
  3.97442378e-06 -6.48271580e-06 -9.26279991e-06  2.80118601e-05  2.50558620e-05
  1.63838759e-06 -6.44587460e-05 -1.19541963e-05 -1.16158394e-05 -1.97931252e-05
  1.18572833e-06  6.13174568e-06 -4.96164477e-06  1.30282126e-06 -9.67955631e-07
  3.31087148e-04  2.97713821e-04  1.88512907e-04 -1.23671685e-05  5.26008927e-05
 -2.62538229e-05  3.31085364e-04  2.97721483e-04  1.88515800e-04 -7.45145100e-06
  4.57169171e-05  3.82571250e-05  9.61236408e-06  1.24260780e-05  6.31820912e-07
  9.73231724e-06 -1.68773284e-05 -2.13664463e-05  9.61225749e-06  1.24261567e-05
  6.28021030e-07  1.25512913e-05 -2.08278323e-05  1.56447444e-05  1.81104172e-05
 -6.10860253e-05 -1.61438356e-05 -9.42199723e-07  4.26104067e-06  5.26710035e-07
  1.91985114e-02  1.59610366e-02  1.00191396e-04 -7.98627089e-05 -1.61537297e-05
 -1.12172781e-04  2.71268964e-04 -1.85863622e-04 -4.04970318e-05 -6.05872591e-04
  2.88243339e-04 -1.63785544e-04 -3.94318860e-05  6.98275311e-05  2.53458342e-05
 -1.72955744e-05 -4.54683797e-05  1.16036892e-04 -5.63029484e-01 -4.66276237e-01
  5.95196538e-05  1.86289705e-04  1.53437179e-05 -4.40923998e-03 -5.17807215e-06
 -2.03725572e-04 -2.13447371e-05  1.77752014e-03  2.64354572e-04 -7.02737600e-05
 -2.76328139e-05 -7.46386226e-05 -1.85303860e-05  1.36525428e-05  4.03208153e-05
 -5.05582781e-05  2.28790492e-07 -2.12373431e-07  6.02951205e-06 -2.45882692e-05
  9.63888088e-05 -1.77567825e-04  5.56921394e-07  1.32692643e-06  9.91831734e-08
  1.01115671e-05 -2.82936770e-07 -8.00283439e-07 -3.91122017e-05  8.56825157e-06
  3.89306989e-06  4.33105002e-05 -4.79454661e-05 -8.41517083e-06  4.90981150e-05
  6.34134816e-06 -3.06169404e-06 -5.50914918e-06 -3.93772119e-07  1.12184926e-06
 -2.07066592e-06  1.75035103e-06 -1.62622116e-07  8.03747038e-07  8.45515672e-07
  6.35010904e-07  1.95676197e-06 -1.34411297e-05 -9.33747651e-06  4.95053883e-07
 -5.90074464e-06  7.56230046e-05 -9.58283519e-06 -9.60745260e-06 -1.60371716e-05
  7.69903647e-07  1.70118263e-06 -6.84515280e-07 -1.41830147e-07  1.64453058e-06
  3.71319437e-07  8.23918422e-08  8.36532570e-07  1.94485410e-06  1.43812182e-07
  5.70848412e-06  8.47843053e-06 -5.72906791e-06 -1.25708858e-06 -2.72475297e-05
  1.14986987e-05  3.67513945e-06 -4.84014803e-07  2.81856792e-06  7.24742164e-07
 -4.87402169e-07 -1.80714312e-06  1.94011928e-06 -1.62640706e-07  8.03723829e-07
  5.52990929e-07  1.04498029e-06 -1.88407317e-06 -1.34412040e-05 -8.33985989e-06
 -9.03706922e-07  7.20387112e-06  7.56241101e-05 -7.22504742e-06 -1.29099655e-05
  1.49136889e-05  1.27298199e-06 -1.00308889e-06  6.05601350e-08 -2.66707709e-07
  1.99457195e-06  1.08558153e-05  2.50136920e-05  6.49186712e-06 -3.96156143e-07
 -7.87714505e-06  8.08374976e-06  1.08557009e-05  2.50137937e-05  6.49218789e-06
 -1.72775921e-06 -6.01109952e-06 -9.40447619e-06 -3.38466458e-04 -1.82308589e-04
 -2.46916091e-04 -8.82423504e-06  1.52162637e-05  2.40647212e-07 -3.38465627e-04