2022-11-03:12:41:40,989 INFO     [psi4.driver.task_planner:266] PLANNING Atomic:  keywords={'FREEZE_CORE': 'TRUE', 'function_kwargs': {}}
2022-11-03:12:41:40,992 INFO     [psi4.driver.driver:499] Compute energy(): method=wb97x-d, basis=6-311+g*, molecule=default, nre=133.5234777731354
2022-11-03:12:41:48,130 INFO     [psi4.driver.driver:502] Return energy(): -205.73395207199027
,
    A. Alenaizan, A. M. James, S. Lehtola, J. P. Misiewicz, M. Scheurer,
    R. A. Shaw, J. B. Schriber, Y. Xie, Z. L. Glick, D. A. Sirianni,
    J. S. O'Brien, J. M. Waldrop, A. Kumar, E. G. Hohenstein,
    B. P. Pritchard, B. R. Brooks, H. F. Schaefer III, A. Yu. Sokolov,
    K. Patkowski, A. E. DePrince III, U. Bozkaya, R. A. King,
    F. A. Evangelista, J. M. Turney, T. D. Crawford, C. D. Sherrill,
    J. Chem. Phys. 152(18) 184108 (2020). https://doi.org/10.1063/5.0006002

                            Additional Code Authors
    E. T. Seidl, C. L. Janssen, E. F. Valeev, M. L. Leininger,
    J. F. Gonthier, R. M. Richard, H. R. McAlexander, M. Saitow, X. Wang,
    P. Verma, M. H. Lechner, and A. Jiang

             Previous Authors, Complete List of Code Contributors,
                       and Citations for Specific Modules
    https://github.com/psi4/psi4/blob/master/codemeta.json
    https://github.com/psi4/psi4/graphs/contributors
    http://psicode.org/psi4manual/master/introduction.html#citing-psifour

    -----------------------------------------------------------------------


    Psi4 started on: Thursday, 03 November 2022 12:41PM

    Process ID: 6963
    Host:       DESKTOP-26BCFJT
    PSIDATADIR: /home/chase/psi4conda/share/psi4
    Memory:     500.0 MiB
    Threads:    1
    
  ==> Input File <==

--------------------------------------------------------------------------
molecule { 
1 1
 N   -0.569050    1.192388   -0.188752
 C    0.025983   -0.011541   -0.048936
 N    1.218597   -0.083655    0.523103
 H    1.678648    0.752562    0.850648
 H    1.702639   -0.959566    0.650598
 N   -0.638569   -1.115715   -0.351684
 H   -0.689765    1.811570    0.593046
 H   -0.910486    1.508663   -1.079380
 H   -1.588600   -1.061144   -0.687248
 H   -0.229358   -2.033553   -0.261443
}
memory 1GB
set_num_threads(2)
psi4_io.set_default_path("/home/chase/temp/Psi4-guan")
set freeze_core True
E, wfn = energy('wb97x-d/6-311+G*',return_wfn=True)
oeprop(wfn,"WIBERG_LOWDIN_INDICES")
clean()
--------------------------------------------------------------------------

  Memory set to 953.674 MiB by Python driver.
  Threads set to 2 by Python driver.

Scratch directory: /home/chase/temp/Psi4-guan/

*** tstart() called on DESKTOP-26BCFJT
*** at Thu Nov  3 12:41:40 2022

   => Loading Basis Set <=

    Name: 6-311+G*
    Role: ORBITAL
    Keyword: BASIS
    atoms 1, 3, 6   entry N          line   151 file /home/chase/psi4conda/share/psi4/basis/6-311pgs.gbs 
    atoms 2         entry C          line   130 file /home/chase/psi4conda/share/psi4/basis/6-311pgs.gbs 
    atoms 4-5, 7-10 entry H          line    47 file /home/chase/psi4conda/share/psi4/basis/6-311pgs.gbs 

   => WB97X-D: Empirical Dispersion <=

    Chai and Head-Gordon Dispersion Correction
    Chai, J.-D.; Head-Gordon, M. (2010), J. Chem. Phys., 132: 6615-6620

        s6 =       1.000000


         ---------------------------------------------------------
                                   SCF
               by Justin Turney, Rob Parrish, Andy Simmonett
                          and Daniel G. A. Smith
                              RKS Reference
                        2 Threads,    953 MiB Core
         ---------------------------------------------------------

  ==> Geometry <==

    Molecular point group: c1
    Full point group: C1

    Geometry (in Angstrom), charge = 1, multiplicity = 1:

       Center              X                  Y                   Z               Mass       
    ------------   -----------------  -----------------  -----------------  -----------------
         N           -0.576181836993     1.196011015607    -0.176043762491    14.003074004430
         C            0.018851163007    -0.007917984393    -0.036227762491    12.000000000000
         N            1.211465163007    -0.080031984393     0.535811237509    14.003074004430
         H            1.671516163007     0.756185015607     0.863356237509     1.007825032230
         H            1.695507163007    -0.955942984393     0.663306237509     1.007825032230
         N           -0.645700836993    -1.112091984393    -0.338975762491    14.003074004430
         H           -0.696896836993     1.815193015607     0.605754237509     1.007825032230
         H           -0.917617836993     1.512286015607    -1.066671762491     1.007825032230
         H           -1.595731836993    -1.057520984393    -0.674539762491     1.007825032230
         H           -0.236489836993    -2.029929984393    -0.248734762491     1.007825032230

  Running in c1 symmetry.

  Rotational constants: A =      0.33999  B =      0.32837  C =      0.17059 [cm^-1]
  Rotational constants: A =  10192.75879  B =   9844.24733  C =   5114.12923 [MHz]
  Nuclear repulsion =  133.523477773135369

  Charge       = 1
  Multiplicity = 1
  Electrons    = 32
  Nalpha       = 16
  Nbeta        = 16

  ==> Algorithm <==

  SCF Algorithm Type is DF.
  DIIS enabled.
  MOM disabled.
  Fractional occupation disabled.
  Guess Type is SAD.
  Energy threshold   = 1.00e-06
  Density threshold  = 1.00e-06
  Integral threshold = 1.00e-12

  ==> Primary Basis <==

  Basis Set: 6-311+G*
    Blend: 6-311+G*
    Number of shells: 58
    Number of basis functions: 106
    Number of Cartesian functions: 110
    Spherical Harmonics?: true
    Max angular momentum: 2

  ==> DFT Potential <==

   => LibXC <=

    Version 5.1.5
    S. Lehtola, C. Steigemann, M. J. Oliveira, and M. A. Marques, SoftwareX 7, 1 (2018) (10.1016/j.softx.2017.11.002)

   => Composite Functional: WB97X-D <= 

    wB97X-D Hyb-GGA Exchange-Correlation Functional

    J.-D. Chai and M. Head-Gordon, Phys. Chem. Chem. Phys. 10, 6615 (2008) (10.1039/B810189B)

    Deriv               =              1
    GGA                 =           TRUE
    Meta                =          FALSE

    Exchange Hybrid     =           TRUE
    MP2 Hybrid          =          FALSE

   => Exchange-Correlation Functionals <=

    1.0000   wB97X-D range-separated functional

   => Exact (HF) Exchange <=

    0.7780            HF,LR [omega = 0.2000]
    0.2220               HF 

   => LibXC Density Thresholds  <==

    XC_HYB_GGA_XC_WB97X_D:  1.00E-14 

   => Molecular Quadrature <=

    Radial Scheme          =       TREUTLER
    Pruning Scheme         =           NONE
    Nuclear Scheme         =       TREUTLER

    Blocking Scheme        =         OCTREE
    BS radius alpha        =              1
    Pruning alpha          =              1
    Radial Points          =             75
    Spherical Points       =            302
    Total Points           =         216386
    Total Blocks           =           1657
    Max Points             =            256
    Max Functions          =            106
    Weights Tolerance      =       1.00E-15

   => Loading Basis Set <=

    Name: (6-311+G* AUX)
    Role: JKFIT
    Keyword: DF_BASIS_SCF
    atoms 1, 3, 6   entry N          line   262 file /home/chase/psi4conda/share/psi4/basis/heavy-aug-cc-pvtz-jkfit.gbs 
    atoms 2         entry C          line   200 file /home/chase/psi4conda/share/psi4/basis/heavy-aug-cc-pvtz-jkfit.gbs 
    atoms 4-5, 7-10 entry H          line   116 file /home/chase/psi4conda/share/psi4/basis/heavy-aug-cc-pvtz-jkfit.gbs 

  ==> Integral Setup <==

  DFHelper Memory: AOs need 0.154 GiB; user supplied 0.154 GiB. Using in-core AOs.

  ==> MemDFJK: Density-Fitted J/K Matrices <==

    J tasked:                   Yes
    K tasked:                   Yes
    wK tasked:                  Yes
    Omega:                2.000E-01
    OpenMP threads:               2
    Memory [MiB]:               157
    Algorithm:                 Core
    Schwarz Cutoff:           1E-12
    Mask sparsity (%):       0.4806
    Fitting Condition:        1E-10

   => Auxiliary Basis Set <=

  Basis Set: (6-311+G* AUX)
    Blend: HEAVY-AUG-CC-PVTZ-JKFIT
    Number of shells: 180
    Number of basis functions: 596
    Number of Cartesian functions: 734
    Spherical Harmonics?: true
    Max angular momentum: 4

  Cached 50.0% of DFT collocation blocks in 0.283 [GiB].

  Minimum eigenvalue in the overlap matrix is 1.0013289199E-03.
  Reciprocal condition number of the overlap matrix is 1.0934044098E-04.
    Using symmetric orthogonalization.

  ==> Pre-Iterations <==

  SCF Guess: Superposition of Atomic Densities via on-the-fly atomic UHF (no occupation information).

   -------------------------
    Irrep   Nso     Nmo    
   -------------------------
     A        106     106 
   -------------------------
    Total     106     106
   -------------------------

  ==> Iterations <==

                           Total Energy        Delta E     RMS |[F,P]|

   @DF-RKS iter SAD:  -205.59020566186587   -2.05590e+02   0.00000e+00 
   @DF-RKS iter   1:  -205.46859410947087    1.21612e-01   7.81007e-03 DIIS/ADIIS
   @DF-RKS iter   2:  -205.55164797370486   -8.30539e-02   6.57435e-03 DIIS/ADIIS
   @DF-RKS iter   3:  -205.73317601926556   -1.81528e-01   3.57763e-04 DIIS/ADIIS
   @DF-RKS iter   4:  -205.73377526327448   -5.99244e-04   1.88698e-04 DIIS/ADIIS
   @DF-RKS iter   5:  -205.73394874724710   -1.73484e-04   2.08576e-05 DIIS
   @DF-RKS iter   6:  -205.73395185808599   -3.11084e-06   5.37287e-06 DIIS
   @DF-RKS iter   7:  -205.73395201850997   -1.60424e-07   2.83102e-06 DIIS
   @DF-RKS iter   8:  -205.73395207199027   -5.34803e-08   4.49124e-07 DIIS
  Energy and wave function converged.


  ==> Post-Iterations <==

   Electrons on quadrature grid:
      Ntotal   =   32.0000007204 ; deviation = 7.204e-07 

    Orbital Energies [Eh]
    ---------------------

    Doubly Occupied:                                                      

       1A    -14.678372     2A    -14.677152     3A    -14.643638  
       4A    -10.647703     5A     -1.331372     6A     -1.215430  
       7A     -1.198718     8A     -0.960378     9A     -0.890295  
      10A     -0.881042    11A     -0.819536    12A     -0.793809  
      13A     -0.785028    14A     -0.703750    15A     -0.574945  
      16A     -0.560771  

    Virtual:                                                              

      17A     -0.141358    18A     -0.100380    19A     -0.067225  
      20A     -0.062770    21A     -0.034221    22A     -0.025682  
      23A     -0.010985    24A      0.005125    25A      0.021540  
      26A      0.025132    27A      0.036236    28A      0.052317  
      29A      0.069204    30A      0.077769    31A      0.094120  
      32A      0.102400    33A      0.115912    34A      0.122849  
      35A      0.127019    36A      0.140040    37A      0.143865  
      38A      0.169124    39A      0.187546    40A      0.192675  
      41A      0.306894    42A      0.314425    43A      0.407550  
      44A      0.419644    45A      0.430432    46A      0.439524  
      47A      0.468777    48A      0.502368    49A      0.535231  
      50A      0.578391    51A      0.586141    52A      0.600369  
      53A      0.660720    54A      0.669565    55A      0.673843  
      56A      0.694444    57A      0.730304    58A      0.750249  
      59A      0.758379    60A      0.817846    61A      0.895812  
      62A      0.989889    63A      1.081538    64A      1.171307  
      65A      1.190968    66A      1.276348    67A      1.545923  
      68A      1.576827    69A      1.631746    70A      1.746096  
      71A      1.758135    72A      1.837358    73A      1.851716  
      74A      1.916052    75A      1.928624    76A      1.938512  
      77A      1.978014    78A      2.159577    79A      2.222288  
      80A      2.309176    81A      2.379330    82A      2.511740  
      83A      2.519432    84A      2.535857    85A      2.588384  
      86A      2.594581    87A      2.629231    88A      2.667749  
      89A      2.854382    90A      3.060715    91A      3.138219  
      92A      3.290955    93A      3.291737    94A      3.707003  
      95A      3.745026    96A      3.811934    97A      4.022016  
      98A      4.077613    99A      4.098071   100A      4.250094  
     101A      4.694304   102A      4.742131   103A     23.715703  
     104A     35.222950   105A     35.492718   106A     35.509852  

    Final Occupation by Irrep:
              A 
    DOCC [    16 ]

  @DF-RKS Final Energy:  -205.73395207199027

   => Energetics <=

    Nuclear Repulsion Energy =            133.5234777731353688
    One-Electron Energy =                -534.5806431150433582
    Two-Electron Energy =                 214.7908574512367750
    DFT Exchange-Correlation Energy =     -19.4647114349365822
    Empirical Dispersion Energy =          -0.0029327463824721
    VV10 Nonlocal Energy =                  0.0000000000000000
    Total Energy =                       -205.7339520719902737

Computation Completed


Properties will be evaluated at   0.000000,   0.000000,   0.000000 [a0]

Properties computed using the SCF density matrix


 Multipole Moments:

 ------------------------------------------------------------------------------------
     Multipole            Electronic (a.u.)      Nuclear  (a.u.)        Total (a.u.)
 ------------------------------------------------------------------------------------

 L = 1.  Multiply by 2.5417464519 to convert [e a0] to [Debye]
 Dipole X            :          0.1640966           -0.0746983            0.0893984
 Dipole Y            :         -0.2786547            0.0377407           -0.2409141
 Dipole Z            :         -0.0591457            0.1335013            0.0743556
 Magnitude           :                                                    0.2675078

 ------------------------------------------------------------------------------------

*** tstop() called on DESKTOP-26BCFJT at Thu Nov  3 12:41:48 2022
Module time:
	user time   =      13.73 seconds =       0.23 minutes
	system time =       0.24 seconds =       0.00 minutes
	total time  =          8 seconds =       0.13 minutes
Total time:
	user time   =      13.73 seconds =       0.23 minutes
	system time =       0.24 seconds =       0.00 minutes
	total time  =          8 seconds =       0.13 minutes


Properties will be evaluated at   0.000000,   0.000000,   0.000000 [a0]
OEProp: No title given, name of density matrix used for the following properties is 'SCF density'


  Wiberg Bond Indices using Orthogonal Lowdin Orbitals:

  Irrep: 1 Size: 10 x 10

                 1                   2                   3                   4                   5

    1     0.00000000000000     1.43985371106499     0.17223365550093     0.01546018301285     0.01224304094866
    2     1.43985371106499     0.00000000000000     1.60548087700224     0.05252127021265     0.05228489073702
    3     0.17223365550093     1.60548087700224     0.00000000000000     0.83004798664945     0.83359341142840
    4     0.01546018301285     0.05252127021265     0.83004798664945     0.00000000000000     0.01165333400625
    5     0.01224304094866     0.05228489073702     0.83359341142840     0.01165333400625     0.00000000000000
    6     0.16916166297379     1.61044846272475     0.22382360117477     0.00938603794693     0.01322645243403
    7     0.82958470577051     0.05072644391468     0.01368467695284     0.00060670354113     0.00024935853733
    8     0.83090064262253     0.05096003715847     0.01319679973534     0.00026721390554     0.00036860613555
    9     0.01567174674151     0.05231555138854     0.00931329747158     0.00067170883898     0.00050566308204
   10     0.01297165191952     0.05228535394649     0.01308615788039     0.00049248737391     0.00116779009214

                 6                   7                   8                   9                  10

    1     0.16916166297379     0.82958470577051     0.83090064262253     0.01567174674151     0.01297165191952
    2     1.61044846272475     0.05072644391468     0.05096003715847     0.05231555138854     0.05228535394649
    3     0.22382360117477     0.01368467695284     0.01319679973534     0.00931329747158     0.01308615788039
    4     0.00938603794693     0.00060670354113     0.00026721390554     0.00067170883898     0.00049248737391
    5     0.01322645243403     0.00024935853733     0.00036860613555     0.00050566308204     0.00116779009214
    6     0.00000000000000     0.01381529235211     0.01307004603599     0.82979449131632     0.83337931622092
    7     0.01381529235211     0.00000000000000     0.01081319970980     0.00017941018109     0.00027835191749
    8     0.01307004603599     0.01081319970980     0.00000000000000     0.00044034622298     0.00017959691558
    9     0.82979449131632     0.00017941018109     0.00044034622298     0.00000000000000     0.01169226932859
   10     0.83337931622092     0.00027835191749     0.00017959691558     0.01169226932859     0.00000000000000



  Atomic Valences: 

 #  #
 Irrep: 1
      1:    3.498081000555294
      2:    4.966876598149832
      3:    3.714460463795940
      4:    0.921106925487672
      5:    0.925292547401418
      6:    3.716105363179595
      7:    0.919938142876969
      8:    0.920196488441773
      9:    0.920584484571619
     10:    0.925532975595018


    Psi4 stopped on: Thursday, 03 November 2022 12:41PM
    Psi4 wall time for execution: 0:00:07.19

*** Psi4 exiting successfully. Buy a developer a beer!
