2022-11-03:12:41:57,418 INFO     [psi4.driver.task_planner:266] PLANNING Atomic:  keywords={'FREEZE_CORE': 'TRUE', 'function_kwargs': {}}
2022-11-03:12:41:57,422 INFO     [psi4.driver.driver:499] Compute energy(): method=wb97x-d, basis=6-311+g*, molecule=default, nre=133.33835972558396
2022-11-03:12:42:04,741 INFO     [psi4.driver.driver:502] Return energy(): -205.72760694105997

    A. Alenaizan, A. M. James, S. Lehtola, J. P. Misiewicz, M. Scheurer,
    R. A. Shaw, J. B. Schriber, Y. Xie, Z. L. Glick, D. A. Sirianni,
    J. S. O'Brien, J. M. Waldrop, A. Kumar, E. G. Hohenstein,
    B. P. Pritchard, B. R. Brooks, H. F. Schaefer III, A. Yu. Sokolov,
    K. Patkowski, A. E. DePrince III, U. Bozkaya, R. A. King,
    F. A. Evangelista, J. M. Turney, T. D. Crawford, C. D. Sherrill,
    J. Chem. Phys. 152(18) 184108 (2020). https://doi.org/10.1063/5.0006002

                            Additional Code Authors
    E. T. Seidl, C. L. Janssen, E. F. Valeev, M. L. Leininger,
    J. F. Gonthier, R. M. Richard, H. R. McAlexander, M. Saitow, X. Wang,
    P. Verma, M. H. Lechner, and A. Jiang

             Previous Authors, Complete List of Code Contributors,
                       and Citations for Specific Modules
    https://github.com/psi4/psi4/blob/master/codemeta.json
    https://github.com/psi4/psi4/graphs/contributors
    http://psicode.org/psi4manual/master/introduction.html#citing-psifour

    -----------------------------------------------------------------------


    Psi4 started on: Thursday, 03 November 2022 12:41PM

    Process ID: 6991
    Host:       DESKTOP-26BCFJT
    PSIDATADIR: /home/chase/psi4conda/share/psi4
    Memory:     500.0 MiB
    Threads:    1
    
  ==> Input File <==

--------------------------------------------------------------------------
molecule { 
1 1
 N   -0.578574    1.194239   -0.175904
 C    0.011945   -0.024648    0.003631
 N    1.321790   -0.097366    0.133399
 H    1.875364    0.747677    0.098880
 H    1.814186   -0.969876    0.268415
 N   -0.737681   -1.108267    0.044181
 H   -0.725359    1.574145   -1.092129
 H   -0.883711    1.747115    0.602912
 H   -1.740045   -1.026968   -0.057750
 H   -0.357876   -2.036045    0.174317
}
memory 1GB
set_num_threads(2)
psi4_io.set_default_path("/home/chase/temp/Psi4-guan")
set freeze_core True
E, wfn = energy('wb97x-d/6-311+G*',return_wfn=True)
oeprop(wfn,"WIBERG_LOWDIN_INDICES")
clean()
--------------------------------------------------------------------------

  Memory set to 953.674 MiB by Python driver.
  Threads set to 2 by Python driver.

Scratch directory: /home/chase/temp/Psi4-guan/

*** tstart() called on DESKTOP-26BCFJT
*** at Thu Nov  3 12:41:57 2022

   => Loading Basis Set <=

    Name: 6-311+G*
    Role: ORBITAL
    Keyword: BASIS
    atoms 1, 3, 6   entry N          line   151 file /home/chase/psi4conda/share/psi4/basis/6-311pgs.gbs 
    atoms 2         entry C          line   130 file /home/chase/psi4conda/share/psi4/basis/6-311pgs.gbs 
    atoms 4-5, 7-10 entry H          line    47 file /home/chase/psi4conda/share/psi4/basis/6-311pgs.gbs 

   => WB97X-D: Empirical Dispersion <=

    Chai and Head-Gordon Dispersion Correction
    Chai, J.-D.; Head-Gordon, M. (2010), J. Chem. Phys., 132: 6615-6620

        s6 =       1.000000


         ---------------------------------------------------------
                                   SCF
               by Justin Turney, Rob Parrish, Andy Simmonett
                          and Daniel G. A. Smith
                              RKS Reference
                        2 Threads,    953 MiB Core
         ---------------------------------------------------------

  ==> Geometry <==

    Molecular point group: c1
    Full point group: C1

    Geometry (in Angstrom), charge = 1, multiplicity = 1:

       Center              X                  Y                   Z               Mass       
    ------------   -----------------  -----------------  -----------------  -----------------
         N           -0.581958656910     1.201215750816    -0.176930443190    14.003074004430
         C            0.008560343090    -0.017671249184     0.002604556810    12.000000000000
         N            1.318405343090    -0.090389249184     0.132372556810    14.003074004430
         H            1.871979343090     0.754653750816     0.097853556810     1.007825032230
         H            1.810801343090    -0.962899249184     0.267388556810     1.007825032230
         N           -0.741065656910    -1.101290249184     0.043154556810    14.003074004430
         H           -0.728743656910     1.581121750816    -1.093155443190     1.007825032230
         H           -0.887095656910     1.754091750816     0.601885556810     1.007825032230
         H           -1.743429656910    -1.019991249184    -0.058776443190     1.007825032230
         H           -0.361260656910    -2.029068249184     0.173290556810     1.007825032230

  Running in c1 symmetry.

  Rotational constants: A =      0.34040  B =      0.32348  C =      0.17082 [cm^-1]
  Rotational constants: A =  10204.83227  B =   9697.63913  C =   5121.07894 [MHz]
  Nuclear repulsion =  133.338359725583956

  Charge       = 1
  Multiplicity = 1
  Electrons    = 32
  Nalpha       = 16
  Nbeta        = 16

  ==> Algorithm <==

  SCF Algorithm Type is DF.
  DIIS enabled.
  MOM disabled.
  Fractional occupation disabled.
  Guess Type is SAD.
  Energy threshold   = 1.00e-06
  Density threshold  = 1.00e-06
  Integral threshold = 1.00e-12

  ==> Primary Basis <==

  Basis Set: 6-311+G*
    Blend: 6-311+G*
    Number of shells: 58
    Number of basis functions: 106
    Number of Cartesian functions: 110
    Spherical Harmonics?: true
    Max angular momentum: 2

  ==> DFT Potential <==

   => LibXC <=

    Version 5.1.5
    S. Lehtola, C. Steigemann, M. J. Oliveira, and M. A. Marques, SoftwareX 7, 1 (2018) (10.1016/j.softx.2017.11.002)

   => Composite Functional: WB97X-D <= 

    wB97X-D Hyb-GGA Exchange-Correlation Functional

    J.-D. Chai and M. Head-Gordon, Phys. Chem. Chem. Phys. 10, 6615 (2008) (10.1039/B810189B)

    Deriv               =              1
    GGA                 =           TRUE
    Meta                =          FALSE

    Exchange Hybrid     =           TRUE
    MP2 Hybrid          =          FALSE

   => Exchange-Correlation Functionals <=

    1.0000   wB97X-D range-separated functional

   => Exact (HF) Exchange <=

    0.7780            HF,LR [omega = 0.2000]
    0.2220               HF 

   => LibXC Density Thresholds  <==

    XC_HYB_GGA_XC_WB97X_D:  1.00E-14 

   => Molecular Quadrature <=

    Radial Scheme          =       TREUTLER
    Pruning Scheme         =           NONE
    Nuclear Scheme         =       TREUTLER

    Blocking Scheme        =         OCTREE
    BS radius alpha        =              1
    Pruning alpha          =              1
    Radial Points          =             75
    Spherical Points       =            302
    Total Points           =         216320
    Total Blocks           =           1638
    Max Points             =            256
    Max Functions          =            106
    Weights Tolerance      =       1.00E-15

   => Loading Basis Set <=

    Name: (6-311+G* AUX)
    Role: JKFIT
    Keyword: DF_BASIS_SCF
    atoms 1, 3, 6   entry N          line   262 file /home/chase/psi4conda/share/psi4/basis/heavy-aug-cc-pvtz-jkfit.gbs 
    atoms 2         entry C          line   200 file /home/chase/psi4conda/share/psi4/basis/heavy-aug-cc-pvtz-jkfit.gbs 
    atoms 4-5, 7-10 entry H          line   116 file /home/chase/psi4conda/share/psi4/basis/heavy-aug-cc-pvtz-jkfit.gbs 

  ==> Integral Setup <==

  DFHelper Memory: AOs need 0.154 GiB; user supplied 0.154 GiB. Using in-core AOs.

  ==> MemDFJK: Density-Fitted J/K Matrices <==

    J tasked:                   Yes
    K tasked:                   Yes
    wK tasked:                  Yes
    Omega:                2.000E-01
    OpenMP threads:               2
    Memory [MiB]:               157
    Algorithm:                 Core
    Schwarz Cutoff:           1E-12
    Mask sparsity (%):       0.5518
    Fitting Condition:        1E-10

   => Auxiliary Basis Set <=

  Basis Set: (6-311+G* AUX)
    Blend: HEAVY-AUG-CC-PVTZ-JKFIT
    Number of shells: 180
    Number of basis functions: 596
    Number of Cartesian functions: 734
    Spherical Harmonics?: true
    Max angular momentum: 4

  Cached 50.0% of DFT collocation blocks in 0.279 [GiB].

  Minimum eigenvalue in the overlap matrix is 9.9574565861E-04.
  Reciprocal condition number of the overlap matrix is 1.0897919674E-04.
    Using symmetric orthogonalization.

  ==> Pre-Iterations <==

  SCF Guess: Superposition of Atomic Densities via on-the-fly atomic UHF (no occupation information).

   -------------------------
    Irrep   Nso     Nmo    
   -------------------------
     A        106     106 
   -------------------------
    Total     106     106
   -------------------------

  ==> Iterations <==

                           Total Energy        Delta E     RMS |[F,P]|

   @DF-RKS iter SAD:  -205.57573433798765   -2.05576e+02   0.00000e+00 
   @DF-RKS iter   1:  -205.46002880187012    1.15706e-01   7.84834e-03 ADIIS/DIIS
   @DF-RKS iter   2:  -205.54239312244286   -8.23643e-02   6.61991e-03 ADIIS/DIIS
   @DF-RKS iter   3:  -205.72685382403085   -1.84461e-01   3.50605e-04 ADIIS/DIIS
   @DF-RKS iter   4:  -205.72744367564516   -5.89852e-04   1.81368e-04 ADIIS/DIIS
   @DF-RKS iter   5:  -205.72760284749819   -1.59172e-04   2.50412e-05 DIIS
   @DF-RKS iter   6:  -205.72760640499914   -3.55750e-06   1.09554e-05 DIIS
   @DF-RKS iter   7:  -205.72760691175509   -5.06756e-07   1.92602e-06 DIIS
   @DF-RKS iter   8:  -205.72760694105997   -2.93049e-08   3.80830e-07 DIIS
  Energy and wave function converged.


  ==> Post-Iterations <==

   Electrons on quadrature grid:
      Ntotal   =   31.9999965949 ; deviation = -3.405e-06 

    Orbital Energies [Eh]
    ---------------------

    Doubly Occupied:                                                      

       1A    -14.684180     2A    -14.684150     3A    -14.627361  
       4A    -10.650339     5A     -1.332175     6A     -1.220219  
       7A     -1.189477     8A     -0.961016     9A     -0.889423  
      10A     -0.879051    11A     -0.823310    12A     -0.795907  
      13A     -0.780350    14A     -0.695517    15A     -0.579553  
      16A     -0.551538  

    Virtual:                                                              

      17A     -0.151465    18A     -0.102191    19A     -0.066793  
      20A     -0.061143    21A     -0.037956    22A     -0.027297  
      23A     -0.007242    24A     -0.002161    25A      0.019246  
      26A      0.021229    27A      0.044486    28A      0.052745  
      29A      0.064206    30A      0.079481    31A      0.099232  
      32A      0.112382    33A      0.113112    34A      0.119310  
      35A      0.127005    36A      0.146118    37A      0.149211  
      38A      0.161927    39A      0.192269    40A      0.203291  
      41A      0.311634    42A      0.320279    43A      0.413159  
      44A      0.420462    45A      0.428330    46A      0.437923  
      47A      0.464174    48A      0.499431    49A      0.501642  
      50A      0.585939    51A      0.588180    52A      0.636548  
      53A      0.663457    54A      0.663463    55A      0.666918  
      56A      0.700950    57A      0.744066    58A      0.744075  
      59A      0.760710    60A      0.845261    61A      0.903288  
      62A      0.988344    63A      1.076405    64A      1.167012  
      65A      1.201608    66A      1.292431    67A      1.562284  
      68A      1.568958    69A      1.643557    70A      1.738380  
      71A      1.745150    72A      1.779345    73A      1.856032  
      74A      1.926613    75A      1.935338    76A      1.939651  
      77A      1.953327    78A      2.160083    79A      2.204714  
      80A      2.365344    81A      2.387969    82A      2.503692  
      83A      2.517145    84A      2.540339    85A      2.603735  
      86A      2.609104    87A      2.651101    88A      2.658169  
      89A      2.947247    90A      2.953093    91A      3.137718  
      92A      3.291627    93A      3.295349    94A      3.696349  
      95A      3.741071    96A      3.840691    97A      4.006749  
      98A      4.074756    99A      4.095369   100A      4.273622  
     101A      4.678195   102A      4.739543   103A     23.714564  
     104A     35.224296   105A     35.497457   106A     35.509977  

    Final Occupation by Irrep:
              A 
    DOCC [    16 ]

  @DF-RKS Final Energy:  -205.72760694105997

   => Energetics <=

    Nuclear Repulsion Energy =            133.3383597255839561
    One-Electron Energy =                -534.2361682749802867
    Two-Electron Energy =                 214.6351872701407899
    DFT Exchange-Correlation Energy =     -19.4620689841638637
    Empirical Dispersion Energy =          -0.0029166776405412
    VV10 Nonlocal Energy =                  0.0000000000000000
    Total Energy =                       -205.7276069410599746

Computation Completed


Properties will be evaluated at   0.000000,   0.000000,   0.000000 [a0]

Properties computed using the SCF density matrix


 Multipole Moments:

 ------------------------------------------------------------------------------------
     Multipole            Electronic (a.u.)      Nuclear  (a.u.)        Total (a.u.)
 ------------------------------------------------------------------------------------

 L = 1.  Multiply by 2.5417464519 to convert [e a0] to [Debye]
 Dipole X            :          0.2280848           -0.0353751            0.1927097
 Dipole Y            :         -0.4708071            0.0730091           -0.3977980
 Dipole Z            :          0.0693605           -0.0107896            0.0585709
 Magnitude           :                                                    0.4458821

 ------------------------------------------------------------------------------------

*** tstop() called on DESKTOP-26BCFJT at Thu Nov  3 12:42:04 2022
Module time:
	user time   =      14.05 seconds =       0.23 minutes
	system time =       0.31 seconds =       0.01 minutes
	total time  =          7 seconds =       0.12 minutes
Total time:
	user time   =      14.05 seconds =       0.23 minutes
	system time =       0.31 seconds =       0.01 minutes
	total time  =          7 seconds =       0.12 minutes


Properties will be evaluated at   0.000000,   0.000000,   0.000000 [a0]
OEProp: No title given, name of density matrix used for the following properties is 'SCF density'


  Wiberg Bond Indices using Orthogonal Lowdin Orbitals:

  Irrep: 1 Size: 10 x 10

                 1                   2                   3                   4                   5

    1     0.00000000000000     1.36652203941114     0.15396693374075     0.01672180789666     0.01515265611208
    2     1.36652203941114     0.00000000000000     1.65185385881819     0.05261109933402     0.05213364828060
    3     0.15396693374075     1.65185385881819     0.00000000000000     0.82702309097650     0.83209958486640
    4     0.01672180789666     0.05261109933402     0.82702309097650     0.00000000000000     0.01178047618266
    5     0.01515265611208     0.05213364828060     0.83209958486640     0.01178047618266     0.00000000000000
    6     0.15396702951954     1.65185936220282     0.24788080237423     0.00925140354307     0.01272911047661
    7     0.82928663760419     0.04981535089105     0.01448063238788     0.00014348882633     0.00006307401279
    8     0.82928781984105     0.04981514386305     0.01448038682002     0.00014348436373     0.00006307765467
    9     0.01672185806093     0.05261134838293     0.00925149990064     0.00064474909996     0.00050331846733
   10     0.01515278761538     0.05213398687978     0.01272922202827     0.00050332806315     0.00107634965947

                 6                   7                   8                   9                  10

    1     0.15396702951954     0.82928663760419     0.82928781984105     0.01672185806093     0.01515278761538
    2     1.65185936220282     0.04981535089105     0.04981514386305     0.05261134838293     0.05213398687978
    3     0.24788080237423     0.01448063238788     0.01448038682002     0.00925149990064     0.01272922202827
    4     0.00925140354307     0.00014348882633     0.00014348436373     0.00064474909996     0.00050332806315
    5     0.01272911047661     0.00006307401279     0.00006307765467     0.00050331846733     0.00107634965947
    6     0.00000000000000     0.01448067825590     0.01448040832092     0.82702260008903     0.83209873023472
    7     0.01448067825590     0.00000000000000     0.01039098043519     0.00014348888088     0.00006307544702
    8     0.01448040832092     0.01039098043519     0.00000000000000     0.00014349157015     0.00006307353885
    9     0.82702260008903     0.00014348888088     0.00014349157015     0.00000000000000     0.01178048365427
   10     0.83209873023472     0.00006307544702     0.00006307353885     0.01178048365427     0.00000000000000



  Atomic Valences: 

 #  #
 Irrep: 1
      1:    3.396779569801721
      2:    4.979355838063578
      3:    3.763766011912886
      4:    0.918822928286085
      5:    0.925601295712615
      6:    3.763770125016828
      7:    0.918867406741246
      8:    0.918867866407641
      9:    0.918822838106123
     10:    0.925601037120903


    Psi4 stopped on: Thursday, 03 November 2022 12:42PM
    Psi4 wall time for execution: 0:00:07.38

*** Psi4 exiting successfully. Buy a developer a beer!
