      -----------------------------------------------------------      
     |                   =====================                   |     
     |                           x T B                           |     
     |                   =====================                   |     
     |                         S. Grimme                         |     
     |          Mulliken Center for Theoretical Chemistry        |     
     |                    University of Bonn                     |     
      -----------------------------------------------------------      

   * xtb version 6.5.1 (b24c23e) compiled by 'conda@728c89f4b128' on 2022-07-12

   xtb is free software: you can redistribute it and/or modify it under
   the terms of the GNU Lesser General Public License as published by
   the Free Software Foundation, either version 3 of the License, or
   (at your option) any later version.
   
   xtb is distributed in the hope that it will be useful,
   but WITHOUT ANY WARRANTY; without even the implied warranty of
   MERCHANTABILITY or FITNESS FOR A PARTICULAR PURPOSE.  See the
   GNU Lesser General Public License for more details.
   
   Cite this work as:
   * C. Bannwarth, E. Caldeweyher, S. Ehlert, A. Hansen, P. Pracht,
     J. Seibert, S. Spicher, S. Grimme, WIREs Comput. Mol. Sci., 2020, 11,
     e01493. DOI: 10.1002/wcms.1493
   
   for GFN2-xTB:
   * C. Bannwarth, S. Ehlert and S. Grimme., J. Chem. Theory Comput., 2019,
     15, 1652-1671. DOI: 10.1021/acs.jctc.8b01176
   for GFN1-xTB:
   * S. Grimme, C. Bannwarth, P. Shushkov, J. Chem. Theory Comput., 2017,
     13, 1989-2009. DOI: 10.1021/acs.jctc.7b00118
   for GFN0-xTB:
   * P. Pracht, E. Caldeweyher, S. Ehlert, S. Grimme, ChemRxiv, 2019, preprint.
     DOI: 10.26434/chemrxiv.8326202.v1
   for GFN-FF:
   * S. Spicher and S. Grimme, Angew. Chem. Int. Ed., 2020, 59, 15665-15673.
     DOI: 10.1002/anie.202004239
   
   for ALPB and GBSA implicit solvation:
   * S. Ehlert, M. Stahn, S. Spicher, S. Grimme, J. Chem. Theory Comput.,
     2021, 17, 4250-4261. DOI: 10.1021/acs.jctc.1c00471
   
   for DFT-D4:
   * E. Caldeweyher, C. Bannwarth and S. Grimme, J. Chem. Phys., 2017,
     147, 034112. DOI: 10.1063/1.4993215
   * E. Caldeweyher, S. Ehlert, A. Hansen, H. Neugebauer, S. Spicher,
     C. Bannwarth and S. Grimme, J. Chem. Phys., 2019, 150, 154122.
     DOI: 10.1063/1.5090222
   * E. Caldeweyher, J.-M. Mewes, S. Ehlert and S. Grimme, Phys. Chem. Chem. Phys.
     2020, 22, 8499-8512. DOI: 10.1039/D0CP00502A
   
   for sTDA-xTB:
   * S. Grimme and C. Bannwarth, J. Chem. Phys., 2016, 145, 054103.
     DOI: 10.1063/1.4959605
   
   in the mass-spec context:
   * V. Asgeirsson, C. Bauer and S. Grimme, Chem. Sci., 2017, 8, 4879.
     DOI: 10.1039/c7sc00601b
   * J. Koopman and S. Grimme, ACS Omega 2019, 4, 12, 15120-15133.
     DOI: 10.1021/acsomega.9b02011
   
   for metadynamics refer to:
   * S. Grimme, J. Chem. Theory Comput., 2019, 155, 2847-2862
     DOI: 10.1021/acs.jctc.9b00143
   
   for SPH calculations refer to:
   * S. Spicher and S. Grimme, J. Chem. Theory Comput., 2021, 17, 1701-1714
     DOI: 10.1021/acs.jctc.0c01306
   
   with help from (in alphabetical order)
   P. Atkinson, C. Bannwarth, F. Bohle, G. Brandenburg, E. Caldeweyher
   M. Checinski, S. Dohm, S. Ehlert, S. Ehrlich, I. Gerasimov, C. Hölzer
   A. Katbashev, J. Koopman, C. Lavigne, S. Lehtola, F. März, M. Müller,
   F. Musil, H. Neugebauer, J. Pisarek, C. Plett, P. Pracht, F. Pultar,
   J. Seibert, P. Shushkov, S. Spicher, M. Stahn, M. Steiner, T. Strunk,
   J. Stückrath, T. Rose, and J. Unsleber
   
 * started run on 2022/11/03 at 12:40:20.274     

           -------------------------------------------------
          |                Calculation Setup                |
           -------------------------------------------------

          program call               : /home/chase/psi4conda/envs/xtbenv/bin/xtb --gfn 2 --chrg 1 --uhf 0 guan-opt-1-2-180_preQMOPTprefit_xyzformat.xyz --opt --input xtb-opt-1-2-180_constr.txt
          coordinate file            : guan-opt-1-2-180_preQMOPTprefit_xyzformat.xyz
          omp threads                :                     8

   ID    Z sym.   atoms
    1    7 N      1, 3, 6
    2    6 C      2
    3    1 H      4, 5, 7-10
constraining angle 7 1 2 6 to  180.0000133°, actual value: -179.9999867°
constraining angle 8 1 2 6 to  359.9998574°, actual value:   -0.0001426°
constraining angle 9 6 2 1 to    0.0006279°, actual value:    0.0006279°
constraining angle 10 6 2 1 to  179.9992706°, actual value:  179.9992706°
constraining angle 4 3 2 1 to    0.0006474°, actual value:    0.0006474°
constraining angle 5 3 2 1 to  180.0004202°, actual value: -179.9995798°

           -------------------------------------------------
          |                 G F N 2 - x T B                 |
           -------------------------------------------------

        Reference                      10.1021/acs.jctc.8b01176
      * Hamiltonian:
        H0-scaling (s, p, d)           1.850000    2.230000    2.230000
        zeta-weighting                 0.500000
      * Dispersion:
        s8                             2.700000
        a1                             0.520000
        a2                             5.000000
        s9                             5.000000
      * Repulsion:
        kExp                           1.500000    1.000000
        rExp                           1.000000
      * Coulomb:
        alpha                          2.000000
        third order                    shell-resolved
        anisotropic                    true
        a3                             3.000000
        a5                             4.000000
        cn-shift                       1.200000
        cn-exp                         4.000000
        max-rad                        5.000000

q/qsh data taken from xtbrestart
CAMM data taken from xtbrestart

          ...................................................
          :                      SETUP                      :
          :.................................................:
          :  # basis functions                  22          :
          :  # atomic orbitals                  22          :
          :  # shells                           14          :
          :  # electrons                        24          :
          :  max. iterations                   250          :
          :  Hamiltonian                  GFN2-xTB          :
          :  restarted?                       true          :
          :  GBSA solvation                  false          :
          :  PC potential                    false          :
          :  electronic temp.          300.0000000     K    :
          :  accuracy                    1.0000000          :
          :  -> integral cutoff          0.2500000E+02      :
          :  -> integral neglect         0.1000000E-07      :
          :  -> SCF convergence          0.1000000E-05 Eh   :
          :  -> wf. convergence          0.1000000E-03 e    :
          :  Broyden damping             0.4000000          :
          ...................................................

 iter      E             dE          RMSdq      gap      omega  full diag
   1    -13.7461998 -0.137462E+02  0.665E-01    5.66       0.0  T
   2    -13.7465623 -0.362506E-03  0.350E-01    5.76       1.0  T
   3    -13.7465806 -0.183052E-04  0.121E-01    5.74       1.0  T
   4    -13.7465930 -0.124135E-04  0.193E-02    5.76       1.6  T
   5    -13.7465934 -0.374322E-06  0.101E-02    5.76       3.1  T
   6    -13.7465935 -0.850631E-07  0.113E-03    5.76      28.0  T
   7    -13.7465935 -0.253823E-08  0.261E-04    5.76     121.1  T
   8    -13.7465935 -0.140011E-09  0.839E-05    5.76     377.0  T

   *** convergence criteria satisfied after 8 iterations ***

         #    Occupation            Energy/Eh            Energy/eV
      -------------------------------------------------------------
         1        2.0000           -0.9005475             -24.5051
       ...           ...                  ...                  ...
         6        2.0000           -0.7666603             -20.8619
         7        2.0000           -0.7431722             -20.2227
         8        2.0000           -0.7159652             -19.4824
         9        2.0000           -0.7159267             -19.4814
        10        2.0000           -0.7140192             -19.4295
        11        2.0000           -0.6179350             -16.8149
        12        2.0000           -0.6179182             -16.8144 (HOMO)
        13                         -0.4062364             -11.0543 (LUMO)
        14                         -0.2398428              -6.5265
        15                         -0.1432371              -3.8977
        16                         -0.1432265              -3.8974
        17                         -0.0410759              -1.1177
       ...                                ...                  ...
        22                          0.2768090               7.5324
      -------------------------------------------------------------
                  HL-Gap            0.2116819 Eh            5.7602 eV
             Fermi-level           -0.5120773 Eh          -13.9343 eV

 SCC (total)                   0 d,  0 h,  0 min,  0.209 sec
 SCC setup                      ...        0 min,  0.007 sec (  3.549%)
 Dispersion                     ...        0 min,  0.012 sec (  5.959%)
 classical contributions        ...        0 min,  0.007 sec (  3.549%)
 integral evaluation            ...        0 min,  0.012 sec (  5.625%)
 iterations                     ...        0 min,  0.120 sec ( 57.653%)
 molecular gradient             ...        0 min,  0.049 sec ( 23.600%)
 printout                       ...        0 min,  0.000 sec (  0.059%)

         :::::::::::::::::::::::::::::::::::::::::::::::::::::
         ::                     SUMMARY                     ::
         :::::::::::::::::::::::::::::::::::::::::::::::::::::
         :: total energy             -13.560674577264 Eh    ::
         :: gradient norm              0.022471279743 Eh/a0 ::
         :: HOMO-LUMO gap              5.760157081596 eV    ::
         ::.................................................::
         :: SCC energy               -13.746593507324 Eh    ::
         :: -> isotropic ES            0.110793564646 Eh    ::
         :: -> anisotropic ES         -0.009413261177 Eh    ::
         :: -> anisotropic XC          0.009861980125 Eh    ::
         :: -> dispersion             -0.003396659289 Eh    ::
         :: repulsion energy           0.185916793478 Eh    ::
         :: add. restraining           0.000000000000 Eh    ::
         :: total charge               1.000000000000 e     ::
         :::::::::::::::::::::::::::::::::::::::::::::::::::::

      ----------------------------------------------------------- 
     |                   =====================                   |
     |                        A N C O P T                        |
     |                   =====================                   |
     |               Approximate Normal Coordinate               |
     |                Rational Function Optimizer                |
      ----------------------------------------------------------- 

          ...................................................
          :                      SETUP                      :
          :.................................................:
          :   optimization level            normal          :
          :   max. optcycles                   200          :
          :   ANC micro-cycles                  20          :
          :   degrees of freedom                24          :
          :.................................................:
          :   RF solver                   davidson          :
          :   write xtbopt.log                true          :
          :   linear?                        false          :
          :   energy convergence         0.5000000E-05 Eh   :
          :   grad. convergence          0.1000000E-02 Eh/α :
          :   maximium RF displ.         1.0000000          :
          :   Hlow (freq-cutoff)         0.1000000E-01      :
          :   Hmax (freq-cutoff)         5.0000000          :
          :   S6 in model hess.         20.0000000          :
          ...................................................

generating ANC from model Hessian ...
Using Lindh-Hessian (1995)
 Shifting diagonal of input Hessian by    0.0000000000000000     
 Lowest  eigenvalues of input Hessian
    0.000000    0.000000    0.000000    0.000000    0.000000    0.000000
    0.039620    0.039924    0.039930    0.137274    0.180403    0.180442
    0.180710    0.354623    0.354668    0.411275    0.811015    0.811088
 Highest eigenvalues
    2.311956    2.312196    3.861531    9.854872   11.073206   29.457226


........................................................................
.............................. CYCLE    1 ..............................
........................................................................
   1    -13.7465935 -0.137466E+02  0.192E-05    5.76       0.0  T
   2    -13.7465935 -0.905942E-13  0.109E-05    5.76    2896.9  T
   3    -13.7465935 -0.337508E-13  0.214E-06    5.76   14778.5  T
     SCC iter.                  ...        0 min,  0.062 sec
     gradient                   ...        0 min,  0.048 sec
 * total energy  :   -13.5606746 Eh     change       -0.8268941E-11 Eh
   gradient norm :     0.0224711 Eh/α   predicted     0.0000000E+00 (-100.00%)
   displ. norm   :     0.1060434 α      lambda       -0.1906617E-02
   maximum displ.:     0.1012581 α      in ANC's #4, #10, #14, ...

........................................................................
.............................. CYCLE    2 ..............................
........................................................................
   1    -13.7594782 -0.137595E+02  0.127E-01    5.99       0.0  T
   2    -13.7594857 -0.752784E-05  0.796E-02    5.98       1.0  T
   3    -13.7594848  0.949156E-06  0.190E-02    5.99       1.7  T
   4    -13.7594871 -0.236155E-05  0.472E-03    5.98       6.7  T
   5    -13.7594872 -0.167376E-07  0.143E-03    5.98      22.2  T
   6    -13.7594872 -0.174991E-08  0.293E-05    5.98    1079.5  T
   7    -13.7594872 -0.369482E-12  0.160E-05    5.98    1978.3  T
     SCC iter.                  ...        0 min,  0.108 sec
     gradient                   ...        0 min,  0.063 sec
 * total energy  :   -13.5617942 Eh     change       -0.1119607E-02 Eh
   gradient norm :     0.0037173 Eh/α   predicted    -0.9640302E-03 ( -13.90%)
   displ. norm   :     0.0276590 α      lambda       -0.8809395E-04
   maximum displ.:     0.0275081 α      in ANC's #4, #10, #14, ...

........................................................................
.............................. CYCLE    3 ..............................
........................................................................
   1    -13.7619107 -0.137619E+02  0.338E-02    6.02       0.0  T
   2    -13.7619109 -0.171442E-06  0.199E-02    6.02       1.6  T
   3    -13.7619109 -0.475190E-07  0.181E-03    6.02      17.5  T
   4    -13.7619109 -0.564057E-08  0.994E-04    6.02      31.8  T
   5    -13.7619109 -0.199562E-08  0.337E-04    6.02      93.9  T
     SCC iter.                  ...        0 min,  0.067 sec
     gradient                   ...        0 min,  0.050 sec
 * total energy  :   -13.5618460 Eh     change       -0.5181069E-04 Eh
   gradient norm :     0.0034259 Eh/α   predicted    -0.4408111E-04 ( -14.92%)
   displ. norm   :     0.0105000 α      lambda       -0.1690611E-04
   maximum displ.:     0.0096849 α      in ANC's #4, #10, #14, ...

........................................................................
.............................. CYCLE    4 ..............................
........................................................................
   1    -13.7620769 -0.137621E+02  0.148E-02    6.02       0.0  T
   2    -13.7620770 -0.119004E-06  0.812E-03    6.02       3.9  T
   3    -13.7620770  0.974692E-09  0.258E-03    6.02      12.3  T
   4    -13.7620770 -0.257666E-07  0.344E-04    6.02      91.9  T
   5    -13.7620770 -0.172911E-10  0.847E-05    6.02     373.3  T
     SCC iter.                  ...        0 min,  0.080 sec
     gradient                   ...        0 min,  0.051 sec
 * total energy  :   -13.5618580 Eh     change       -0.1195606E-04 Eh
   gradient norm :     0.0042139 Eh/α   predicted    -0.8453718E-05 ( -29.29%)
   displ. norm   :     0.0125412 α      lambda       -0.1692078E-04
   maximum displ.:     0.0102847 α      in ANC's #4, #10, #14, ...

........................................................................
.............................. CYCLE    5 ..............................
........................................................................
   1    -13.7617745 -0.137618E+02  0.192E-02    6.01       0.0  T
   2    -13.7617748 -0.317190E-06  0.105E-02    6.01       3.0  T
   3    -13.7617748 -0.935670E-08  0.403E-03    6.01       7.8  T
   4    -13.7617748 -0.496727E-07  0.436E-04    6.01      72.5  T
   5    -13.7617748 -0.169980E-10  0.586E-05    6.01     539.8  T
     SCC iter.                  ...        0 min,  0.076 sec
     gradient                   ...        0 min,  0.037 sec
 * total energy  :   -13.5618459 Eh     change        0.1203945E-04 Eh
   gradient norm :     0.0307298 Eh/α   predicted    -0.8461799E-05 (-170.28%)
   displ. norm   :     0.0032920 α      lambda       -0.3667538E-04
   maximum displ.:     0.0030336 α      in ANC's #4, #22, #10, ...

........................................................................
.............................. CYCLE    6 ..............................
........................................................................
   1    -13.7614816 -0.137615E+02  0.406E-03    6.00       0.0  T
   2    -13.7614816 -0.268997E-08  0.238E-03    6.00      13.3  T
   3    -13.7614816 -0.863773E-09  0.226E-04    6.00     139.9  T
   4    -13.7614816 -0.557421E-10  0.117E-04    6.00     269.4  T
     SCC iter.                  ...        0 min,  0.056 sec
     gradient                   ...        0 min,  0.055 sec
 * total energy  :   -13.5618624 Eh     change       -0.1644492E-04 Eh
   gradient norm :     0.0034993 Eh/α   predicted    -0.1833852E-04 (  11.51%)
   displ. norm   :     0.0037593 α      lambda       -0.1711647E-05
   maximum displ.:     0.0029692 α      in ANC's #4, #10, #14, ...

........................................................................
.............................. CYCLE    7 ..............................
........................................................................
   1    -13.7616083 -0.137616E+02  0.588E-03    6.01       0.0  T
   2    -13.7616083 -0.335993E-07  0.322E-03    6.01       9.8  T
   3    -13.7616083 -0.140905E-08  0.129E-03    6.01      24.6  T
   4    -13.7616083 -0.466063E-08  0.135E-04    6.01     234.1  T
   5    -13.7616083 -0.168399E-11  0.169E-05    6.01    1872.0  T
     SCC iter.                  ...        0 min,  0.073 sec
     gradient                   ...        0 min,  0.053 sec
 * total energy  :   -13.5618630 Eh     change       -0.6044203E-06 Eh
   gradient norm :     0.0002307 Eh/α   predicted    -0.8554823E-06 (  41.54%)
   displ. norm   :     0.0015678 α      lambda       -0.1378581E-06
   maximum displ.:     0.0012218 α      in ANC's #4, #10, #14, ...

   *** GEOMETRY OPTIMIZATION CONVERGED AFTER 7 ITERATIONS ***

------------------------------------------------------------------------
 total energy gain   :        -0.0011884 Eh       -0.7457 kcal/mol
 total RMSD          :         0.0458500 a0        0.0243 Å
 total power (kW/mol):        -0.4457287 (step)   -2.4890 (real)
------------------------------------------------------------------------

 ANCopt (total)                0 d,  0 h,  0 min,  1.254 sec
 optimizer setup                ...        0 min,  0.000 sec (  0.005%)
 model hessian                  ...        0 min,  0.002 sec (  0.150%)
 ANC generation                 ...        0 min,  0.000 sec (  0.016%)
 coordinate transformation      ...        0 min,  0.000 sec (  0.002%)
 single point calculation       ...        0 min,  1.214 sec ( 96.813%)
 optimization log               ...        0 min,  0.001 sec (  0.048%)
 hessian update                 ...        0 min,  0.036 sec (  2.877%)
 rational function              ...        0 min,  0.001 sec (  0.062%)

================
 final structure:
================
10
 xtb: 6.5.1 (b24c23e)
N           -0.57870838288622        1.18401525566780       -0.16416443621433
C            0.00000300347494        0.00000255407905       -0.00000251934307
N            1.17334879265251       -0.08589033931180        0.61613188964283
H            1.64301966000277        0.73263762273538        0.96715709306361
H            1.63111957865165       -0.97231721336226        0.75211540664048
N           -0.59463334788684       -1.09811656305714       -0.45197784166316
H           -0.14700171479803        2.03006421986365        0.16994400410254
H           -1.46784145172846        1.27383927775387       -0.62803053451391
H           -1.48410753835255       -1.05775641913498       -0.92208843604018
H           -0.17515858912976       -2.00647037523356       -0.33913460567481

 Bond Distances (Angstroems)
 ---------------------------
N1-C2=1.3281         N1-H7=1.0069         N1-H8=1.0069         C2-N1=1.3281         C2-N3=1.3281         C2-N6=1.3281         
N3-C2=1.3281         N3-H4=1.0069         N3-H5=1.0069         H4-N3=1.0069         H5-N3=1.0069         N6-C2=1.3281         
N6-H9=1.0069         N6-H10=1.0069        H7-N1=1.0069         H8-N1=1.0069         H9-N6=1.0069         H10-N6=1.0069        
 N  H  Rav=1.0069 sigma=0.0000  Rmin=1.0069  Rmax=1.0069     6
 N  C  Rav=1.3281 sigma=0.0000  Rmin=1.3281  Rmax=1.3281     3

 selected bond angles (degree)
 --------------------
H7-N1-C2=121.42                H8-N1-C2=121.42                H8-N1-H7=117.16                N3-C2-N1=120.00                
N6-C2-N1=120.00                N6-C2-N3=120.00                H4-N3-C2=121.42                H5-N3-C2=121.42                
H5-N3-H4=117.16                H9-N6-C2=121.42                H10-N6-C2=121.42               H10-N6-H9=117.16               

 selected dihedral angles (degree)
 ---------------------------------
N3-C2-N1-H7=  0.00            N3-C2-N1-H8=180.00            N6-C2-N1-H7=180.00            N6-C2-N1-H8=  0.00            
H4-N3-C2-N1=  0.00            H4-N3-C2-N6=180.00            H5-N3-C2-N1=180.00            H5-N3-C2-N6=  0.00            
H9-N6-C2-N1=  0.00            H9-N6-C2-N3=180.00            H10-N6-C2-N1=180.00           H10-N6-C2-N3=  0.00           
           -------------------------------------------------
          |                Final Singlepoint                |
           -------------------------------------------------

          ...................................................
          :                      SETUP                      :
          :.................................................:
          :  # basis functions                  22          :
          :  # atomic orbitals                  22          :
          :  # shells                           14          :
          :  # electrons                        24          :
          :  max. iterations                   250          :
          :  Hamiltonian                  GFN2-xTB          :
          :  restarted?                      false          :
          :  GBSA solvation                  false          :
          :  PC potential                    false          :
          :  electronic temp.          300.0000000     K    :
          :  accuracy                    1.0000000          :
          :  -> integral cutoff          0.2500000E+02      :
          :  -> integral neglect         0.1000000E-07      :
          :  -> SCF convergence          0.1000000E-05 Eh   :
          :  -> wf. convergence          0.1000000E-03 e    :
          :  Broyden damping             0.4000000          :
          ...................................................

 iter      E             dE          RMSdq      gap      omega  full diag
   1    -13.7616083 -0.137616E+02  0.749E-06    6.01       0.0  T
   2    -13.7616083 -0.284217E-13  0.391E-06    6.01    8092.1  T
   3    -13.7616083  0.532907E-14  0.128E-06    6.01   24636.2  T

   *** convergence criteria satisfied after 3 iterations ***

         #    Occupation            Energy/Eh            Energy/eV
      -------------------------------------------------------------
         1        2.0000           -0.9077631             -24.7015
       ...           ...                  ...                  ...
         6        2.0000           -0.7691939             -20.9308
         7        2.0000           -0.7494176             -20.3927
         8        2.0000           -0.7179876             -19.5374
         9        2.0000           -0.7179872             -19.5374
        10        2.0000           -0.7160371             -19.4844
        11        2.0000           -0.6198707             -16.8675
        12        2.0000           -0.6198704             -16.8675 (HOMO)
        13                         -0.3990748             -10.8594 (LUMO)
        14                         -0.2305064              -6.2724
        15                         -0.1310120              -3.5650
        16                         -0.1310101              -3.5650
        17                         -0.0342056              -0.9308
       ...                                ...                  ...
        22                          0.3099552               8.4343
      -------------------------------------------------------------
                  HL-Gap            0.2207957 Eh            6.0082 eV
             Fermi-level           -0.5094726 Eh          -13.8635 eV

 SCC (total)                   0 d,  0 h,  0 min,  0.126 sec
 SCC setup                      ...        0 min,  0.006 sec (  5.015%)
 Dispersion                     ...        0 min,  0.012 sec (  9.668%)
 classical contributions        ...        0 min,  0.010 sec (  7.631%)
 integral evaluation            ...        0 min,  0.019 sec ( 14.870%)
 iterations                     ...        0 min,  0.038 sec ( 30.070%)
 molecular gradient             ...        0 min,  0.041 sec ( 32.608%)
 printout                       ...        0 min,  0.000 sec (  0.122%)

         :::::::::::::::::::::::::::::::::::::::::::::::::::::
         ::                     SUMMARY                     ::
         :::::::::::::::::::::::::::::::::::::::::::::::::::::
         :: total energy             -13.561862960912 Eh    ::
         :: gradient norm              0.000230713534 Eh/a0 ::
         :: HOMO-LUMO gap              6.008155725477 eV    ::
         ::.................................................::
         :: SCC energy               -13.761608309722 Eh    ::
         :: -> isotropic ES            0.111343077069 Eh    ::
         :: -> anisotropic ES         -0.009291319420 Eh    ::
         :: -> anisotropic XC          0.009652031101 Eh    ::
         :: -> dispersion             -0.003410844576 Eh    ::
         :: repulsion energy           0.199743391007 Eh    ::
         :: add. restraining           0.000000000029 Eh    ::
         :: total charge               1.000000000000 e     ::
         :::::::::::::::::::::::::::::::::::::::::::::::::::::

           -------------------------------------------------
          |                Property Printout                |
           -------------------------------------------------

    * Orbital Energies and Occupations

         #    Occupation            Energy/Eh            Energy/eV
      -------------------------------------------------------------
         1        2.0000           -0.9077631             -24.7015
         2        2.0000           -0.8554785             -23.2788
         3        2.0000           -0.8554784             -23.2788
         4        2.0000           -0.7873741             -21.4255
         5        2.0000           -0.7691941             -20.9308
         6        2.0000           -0.7691939             -20.9308
         7        2.0000           -0.7494176             -20.3927
         8        2.0000           -0.7179876             -19.5374
         9        2.0000           -0.7179872             -19.5374
        10        2.0000           -0.7160371             -19.4844
        11        2.0000           -0.6198707             -16.8675
        12        2.0000           -0.6198704             -16.8675 (HOMO)
        13                         -0.3990748             -10.8594 (LUMO)
        14                         -0.2305064              -6.2724
        15                         -0.1310120              -3.5650
        16                         -0.1310101              -3.5650
        17                         -0.0342056              -0.9308
        18                         -0.0342010              -0.9307
        19                          0.0749892               2.0406
        20                          0.0783229               2.1313
        21                          0.3099538               8.4343
        22                          0.3099552               8.4343
      -------------------------------------------------------------
                  HL-Gap            0.2207957 Eh            6.0082 eV
             Fermi-level           -0.5094726 Eh          -13.8635 eV

     #   Z          covCN         q      C6AA      α(0)
     1   7 N        2.653    -0.221    25.826     7.548
     2   6 C        2.731     0.255    22.705     7.801
     3   7 N        2.653    -0.221    25.826     7.548
     4   1 H        0.860     0.235     0.946     1.523
     5   1 H        0.860     0.235     0.946     1.523
     6   7 N        2.653    -0.221    25.826     7.548
     7   1 H        0.860     0.235     0.946     1.523
     8   1 H        0.860     0.235     0.946     1.523
     9   1 H        0.860     0.235     0.946     1.523
    10   1 H        0.860     0.235     0.946     1.523

 Mol. C6AA /au·bohr⁶  :        666.017675
 Mol. C8AA /au·bohr⁸  :      13772.895279
 Mol. α(0) /au        :         39.583370


Wiberg/Mayer (AO) data.
largest (>0.10) Wiberg bond orders for each atom

 ---------------------------------------------------------------------------
     #   Z sym  total        # sym  WBO       # sym  WBO       # sym  WBO
 ---------------------------------------------------------------------------
     1   7 N    3.413 --     2 C    1.325     7 H    0.926     8 H    0.926
                             3 N    0.103     6 N    0.103
     2   6 C    3.976 --     3 N    1.325     6 N    1.325     1 N    1.325
     3   7 N    3.413 --     2 C    1.325     5 H    0.926     4 H    0.926
                             6 N    0.103     1 N    0.103
     4   1 H    0.945 --     3 N    0.926
     5   1 H    0.945 --     3 N    0.926
     6   7 N    3.413 --     2 C    1.325    10 H    0.926     9 H    0.926
                             3 N    0.103     1 N    0.103
     7   1 H    0.945 --     1 N    0.926
     8   1 H    0.945 --     1 N    0.926
     9   1 H    0.945 --     6 N    0.926
    10   1 H    0.945 --     6 N    0.926
 ---------------------------------------------------------------------------

Topologies differ in total number of bonds
Writing topology from bond orders to xtbtopo.mol

molecular dipole:
                 x           y           z       tot (Debye)
 q only:        0.000      -0.000      -0.000
   full:        0.000      -0.000      -0.000       0.000
molecular quadrupole (traceless):
                xx          xy          yy          xz          yz          zz
 q only:        1.435      -0.633       4.053       5.174       1.186      -5.489
  q+dip:        1.817      -0.802       5.132       6.551       1.501      -6.950
   full:        1.743      -0.769       4.923       6.283       1.440      -6.666

           -------------------------------------------------
          |                Geometry Summary                 |
           -------------------------------------------------

      molecular mass/u    :       60.0784900
   center of mass at/Å    :        0.0000027       0.0000024      -0.0000035
  moments of inertia/u·Å² :        0.4967057E+02   0.4967065E+02   0.9934122E+02
rotational constants/cm⁻¹ :        0.3393887E+00   0.3393882E+00   0.1696942E+00

 * 9 selected distances

     #   Z          #   Z                                           value/Å
     1   7 N        2   6 C                                       1.3280596 (max)
     2   6 C        3   7 N                                       1.3280587
     3   7 N        4   1 H                                       1.0068752
     3   7 N        5   1 H                                       1.0068756
     2   6 C        6   7 N                                       1.3280587
     1   7 N        7   1 H                                       1.0068754
     1   7 N        8   1 H                                       1.0068753
     6   7 N        9   1 H                                       1.0068751 (min)
     6   7 N       10   1 H                                       1.0068761

 * 2 distinct bonds (by element types)

   Z      Z             #   av. dist./Å        max./Å        min./Å
   1 H    7 N           6     1.0068754     1.0068761     1.0068751
   6 C    7 N           3     1.3280590     1.3280596     1.3280587


optimized geometry written to: xtbopt.xyz


           -------------------------------------------------
          | TOTAL ENERGY              -13.561862960912 Eh   |
          | GRADIENT NORM               0.000230713534 Eh/α |
          | HOMO-LUMO GAP               6.008155725477 eV   |
           -------------------------------------------------

------------------------------------------------------------------------
 * finished run on 2022/11/03 at 12:40:21.920     
------------------------------------------------------------------------
 total:
 * wall-time:     0 d,  0 h,  0 min,  1.646 sec
 *  cpu-time:     0 d,  0 h,  0 min, 13.111 sec
 * ratio c/w:     7.966 speedup
 SCF:
 * wall-time:     0 d,  0 h,  0 min,  0.209 sec
 *  cpu-time:     0 d,  0 h,  0 min,  1.667 sec
 * ratio c/w:     7.980 speedup
 ANC optimizer:
 * wall-time:     0 d,  0 h,  0 min,  1.381 sec
 *  cpu-time:     0 d,  0 h,  0 min, 10.996 sec
 * ratio c/w:     7.964 speedup

