10
 energy: -13.542689509250 gnorm: 0.000378196882 xtb: 6.5.1 (b24c23e)
N           -0.57337991945984        1.18907527361158       -0.19638398667089
C            0.01193662965547       -0.01906175850114       -0.05193395514074
N            1.31127335042131       -0.08521281488595        0.19727853890336
H            1.85884684296090        0.75851536843470        0.27775230772359
H            1.79321801341268       -0.96380193884857        0.31382637375207
N           -0.73200939690071       -1.11357922719951       -0.01935304259667
H           -1.13046225870541        1.40911680873118       -1.00327045307738
H           -0.47095570175644        1.90772808681565        0.49803245032124
H           -1.73549510992532       -1.04857584379234       -0.10259969555122
H           -0.33293444970263       -2.03419694436561        0.08660548233663
