      -----------------------------------------------------------      
     |                   =====================                   |     
     |                           x T B                           |     
     |                   =====================                   |     
     |                         S. Grimme                         |     
     |          Mulliken Center for Theoretical Chemistry        |     
     |                    University of Bonn                     |     
      -----------------------------------------------------------      

   * xtb version 6.5.1 (b24c23e) compiled by 'conda@728c89f4b128' on 2022-07-12

   xtb is free software: you can redistribute it and/or modify it under
   the terms of the GNU Lesser General Public License as published by
   the Free Software Foundation, either version 3 of the License, or
   (at your option) any later version.
   
   xtb is distributed in the hope that it will be useful,
   but WITHOUT ANY WARRANTY; without even the implied warranty of
   MERCHANTABILITY or FITNESS FOR A PARTICULAR PURPOSE.  See the
   GNU Lesser General Public License for more details.
   
   Cite this work as:
   * C. Bannwarth, E. Caldeweyher, S. Ehlert, A. Hansen, P. Pracht,
     J. Seibert, S. Spicher, S. Grimme, WIREs Comput. Mol. Sci., 2020, 11,
     e01493. DOI: 10.1002/wcms.1493
   
   for GFN2-xTB:
   * C. Bannwarth, S. Ehlert and S. Grimme., J. Chem. Theory Comput., 2019,
     15, 1652-1671. DOI: 10.1021/acs.jctc.8b01176
   for GFN1-xTB:
   * S. Grimme, C. Bannwarth, P. Shushkov, J. Chem. Theory Comput., 2017,
     13, 1989-2009. DOI: 10.1021/acs.jctc.7b00118
   for GFN0-xTB:
   * P. Pracht, E. Caldeweyher, S. Ehlert, S. Grimme, ChemRxiv, 2019, preprint.
     DOI: 10.26434/chemrxiv.8326202.v1
   for GFN-FF:
   * S. Spicher and S. Grimme, Angew. Chem. Int. Ed., 2020, 59, 15665-15673.
     DOI: 10.1002/anie.202004239
   
   for ALPB and GBSA implicit solvation:
   * S. Ehlert, M. Stahn, S. Spicher, S. Grimme, J. Chem. Theory Comput.,
     2021, 17, 4250-4261. DOI: 10.1021/acs.jctc.1c00471
   
   for DFT-D4:
   * E. Caldeweyher, C. Bannwarth and S. Grimme, J. Chem. Phys., 2017,
     147, 034112. DOI: 10.1063/1.4993215
   * E. Caldeweyher, S. Ehlert, A. Hansen, H. Neugebauer, S. Spicher,
     C. Bannwarth and S. Grimme, J. Chem. Phys., 2019, 150, 154122.
     DOI: 10.1063/1.5090222
   * E. Caldeweyher, J.-M. Mewes, S. Ehlert and S. Grimme, Phys. Chem. Chem. Phys.
     2020, 22, 8499-8512. DOI: 10.1039/D0CP00502A
   
   for sTDA-xTB:
   * S. Grimme and C. Bannwarth, J. Chem. Phys., 2016, 145, 054103.
     DOI: 10.1063/1.4959605
   
   in the mass-spec context:
   * V. Asgeirsson, C. Bauer and S. Grimme, Chem. Sci., 2017, 8, 4879.
     DOI: 10.1039/c7sc00601b
   * J. Koopman and S. Grimme, ACS Omega 2019, 4, 12, 15120-15133.
     DOI: 10.1021/acsomega.9b02011
   
   for metadynamics refer to:
   * S. Grimme, J. Chem. Theory Comput., 2019, 155, 2847-2862
     DOI: 10.1021/acs.jctc.9b00143
   
   for SPH calculations refer to:
   * S. Spicher and S. Grimme, J. Chem. Theory Comput., 2021, 17, 1701-1714
     DOI: 10.1021/acs.jctc.0c01306
   
   with help from (in alphabetical order)
   P. Atkinson, C. Bannwarth, F. Bohle, G. Brandenburg, E. Caldeweyher
   M. Checinski, S. Dohm, S. Ehlert, S. Ehrlich, I. Gerasimov, C. Hölzer
   A. Katbashev, J. Koopman, C. Lavigne, S. Lehtola, F. März, M. Müller,
   F. Musil, H. Neugebauer, J. Pisarek, C. Plett, P. Pracht, F. Pultar,
   J. Seibert, P. Shushkov, S. Spicher, M. Stahn, M. Steiner, T. Strunk,
   J. Stückrath, T. Rose, and J. Unsleber
   
 * started run on 2022/11/03 at 12:40:35.681     

           -------------------------------------------------
          |                Calculation Setup                |
           -------------------------------------------------

          program call               : /home/chase/psi4conda/envs/xtbenv/bin/xtb --gfn 2 --chrg 1 --uhf 0 guan-opt-1-2-300_preQMOPTprefit_xyzformat.xyz --opt --input xtb-opt-1-2-300_constr.txt
          coordinate file            : guan-opt-1-2-300_preQMOPTprefit_xyzformat.xyz
          omp threads                :                     8

   ID    Z sym.   atoms
    1    7 N      1, 3, 6
    2    6 C      2
    3    1 H      4, 5, 7-10
constraining angle 7 1 2 6 to  299.9819412°, actual value:  -60.0180588°
constraining angle 8 1 2 6 to  119.9819515°, actual value:  119.9819515°
constraining angle 9 6 2 1 to  359.9910131°, actual value:   -0.0089869°
constraining angle 10 6 2 1 to  180.0041472°, actual value: -179.9958528°
constraining angle 4 3 2 1 to  359.9931876°, actual value:   -0.0068124°
constraining angle 5 3 2 1 to  179.9969535°, actual value:  179.9969535°

           -------------------------------------------------
          |                 G F N 2 - x T B                 |
           -------------------------------------------------

        Reference                      10.1021/acs.jctc.8b01176
      * Hamiltonian:
        H0-scaling (s, p, d)           1.850000    2.230000    2.230000
        zeta-weighting                 0.500000
      * Dispersion:
        s8                             2.700000
        a1                             0.520000
        a2                             5.000000
        s9                             5.000000
      * Repulsion:
        kExp                           1.500000    1.000000
        rExp                           1.000000
      * Coulomb:
        alpha                          2.000000
        third order                    shell-resolved
        anisotropic                    true
        a3                             3.000000
        a5                             4.000000
        cn-shift                       1.200000
        cn-exp                         4.000000
        max-rad                        5.000000

q/qsh data taken from xtbrestart
CAMM data taken from xtbrestart

          ...................................................
          :                      SETUP                      :
          :.................................................:
          :  # basis functions                  22          :
          :  # atomic orbitals                  22          :
          :  # shells                           14          :
          :  # electrons                        24          :
          :  max. iterations                   250          :
          :  Hamiltonian                  GFN2-xTB          :
          :  restarted?                       true          :
          :  GBSA solvation                  false          :
          :  PC potential                    false          :
          :  electronic temp.          300.0000000     K    :
          :  accuracy                    1.0000000          :
          :  -> integral cutoff          0.2500000E+02      :
          :  -> integral neglect         0.1000000E-07      :
          :  -> SCF convergence          0.1000000E-05 Eh   :
          :  -> wf. convergence          0.1000000E-03 e    :
          :  Broyden damping             0.4000000          :
          ...................................................

 iter      E             dE          RMSdq      gap      omega  full diag
   1    -13.7239753 -0.137240E+02  0.979E-01    4.71       0.0  T
   2    -13.7259240 -0.194869E-02  0.456E-01    4.30       1.0  T
   3    -13.7259583 -0.343067E-04  0.189E-01    4.26       1.0  T
   4    -13.7259646 -0.628795E-05  0.379E-02    4.27       1.0  T
   5    -13.7259706 -0.600343E-05  0.150E-02    4.26       2.1  T
   6    -13.7259707 -0.878577E-07  0.207E-03    4.26      15.3  T
   7    -13.7259707 -0.554208E-08  0.759E-04    4.26      41.7  T
   8    -13.7259707 -0.736780E-09  0.228E-04    4.26     138.8  T

   *** convergence criteria satisfied after 8 iterations ***

         #    Occupation            Energy/Eh            Energy/eV
      -------------------------------------------------------------
         1        2.0000           -0.9018029             -24.5393
       ...           ...                  ...                  ...
         6        2.0000           -0.7608722             -20.7044
         7        2.0000           -0.7577744             -20.6201
         8        2.0000           -0.7199139             -19.5899
         9        2.0000           -0.7123208             -19.3832
        10        2.0000           -0.6889442             -18.7471
        11        2.0000           -0.6273411             -17.0708
        12        2.0000           -0.5944581             -16.1760 (HOMO)
        13                         -0.4378247             -11.9138 (LUMO)
        14                         -0.2307600              -6.2793
        15                         -0.1492454              -4.0612
        16                         -0.1372564              -3.7349
        17                         -0.0395437              -1.0760
       ...                                ...                  ...
        22                          0.2739781               7.4553
      -------------------------------------------------------------
                  HL-Gap            0.1566334 Eh            4.2622 eV
             Fermi-level           -0.5161414 Eh          -14.0449 eV

 SCC (total)                   0 d,  0 h,  0 min,  0.269 sec
 SCC setup                      ...        0 min,  0.009 sec (  3.457%)
 Dispersion                     ...        0 min,  0.025 sec (  9.375%)
 classical contributions        ...        0 min,  0.016 sec (  6.019%)
 integral evaluation            ...        0 min,  0.017 sec (  6.153%)
 iterations                     ...        0 min,  0.164 sec ( 61.081%)
 molecular gradient             ...        0 min,  0.037 sec ( 13.857%)
 printout                       ...        0 min,  0.000 sec (  0.053%)

         :::::::::::::::::::::::::::::::::::::::::::::::::::::
         ::                     SUMMARY                     ::
         :::::::::::::::::::::::::::::::::::::::::::::::::::::
         :: total energy             -13.538386621549 Eh    ::
         :: gradient norm              0.041218781507 Eh/a0 ::
         :: HOMO-LUMO gap              4.262211591213 eV    ::
         ::.................................................::
         :: SCC energy               -13.725970704477 Eh    ::
         :: -> isotropic ES            0.111911129691 Eh    ::
         :: -> anisotropic ES         -0.009840946977 Eh    ::
         :: -> anisotropic XC          0.010862312312 Eh    ::
         :: -> dispersion             -0.003403822532 Eh    ::
         :: repulsion energy           0.187581673024 Eh    ::
         :: add. restraining           0.000000000000 Eh    ::
         :: total charge               1.000000000000 e     ::
         :::::::::::::::::::::::::::::::::::::::::::::::::::::

      ----------------------------------------------------------- 
     |                   =====================                   |
     |                        A N C O P T                        |
     |                   =====================                   |
     |               Approximate Normal Coordinate               |
     |                Rational Function Optimizer                |
      ----------------------------------------------------------- 

          ...................................................
          :                      SETUP                      :
          :.................................................:
          :   optimization level            normal          :
          :   max. optcycles                   200          :
          :   ANC micro-cycles                  20          :
          :   degrees of freedom                24          :
          :.................................................:
          :   RF solver                   davidson          :
          :   write xtbopt.log                true          :
          :   linear?                        false          :
          :   energy convergence         0.5000000E-05 Eh   :
          :   grad. convergence          0.1000000E-02 Eh/α :
          :   maximium RF displ.         1.0000000          :
          :   Hlow (freq-cutoff)         0.1000000E-01      :
          :   Hmax (freq-cutoff)         5.0000000          :
          :   S6 in model hess.         20.0000000          :
          ...................................................

generating ANC from model Hessian ...
Using Lindh-Hessian (1995)
 Shifting diagonal of input Hessian by    0.0000000000000000     
 Lowest  eigenvalues of input Hessian
    0.000000    0.000000    0.000000    0.000000    0.000000    0.000000
    0.039334    0.040283    0.049049    0.137646    0.152185    0.180704
    0.182034    0.340354    0.357015    0.413343    0.758074    0.810482
 Highest eigenvalues
    2.238090    2.323752    6.833346   10.069449   10.680631   26.553764


........................................................................
.............................. CYCLE    1 ..............................
........................................................................
   1    -13.7259707 -0.137260E+02  0.354E-05    4.26       0.0  T
   2    -13.7259707 -0.330402E-12  0.207E-05    4.26    1527.9  T
   3    -13.7259707 -0.781597E-13  0.313E-06    4.26   10108.2  T
     SCC iter.                  ...        0 min,  0.051 sec
     gradient                   ...        0 min,  0.062 sec
 * total energy  :   -13.5383866 Eh     change       -0.6441248E-10 Eh
   gradient norm :     0.0412171 Eh/α   predicted     0.0000000E+00 (-100.00%)
   displ. norm   :     0.2925162 α      lambda       -0.5299817E-02
   maximum displ.:     0.2615169 α      in ANC's #1, #2, #4, ...

........................................................................
.............................. CYCLE    2 ..............................
........................................................................
   1    -13.7346425 -0.137346E+02  0.219E-01    4.49       0.0  T
   2    -13.7346498 -0.724991E-05  0.125E-01    4.50       1.0  T
   3    -13.7346512 -0.136184E-05  0.162E-02    4.50       1.9  T
   4    -13.7346523 -0.115190E-05  0.554E-03    4.50       5.7  T
   5    -13.7346523 -0.782746E-08  0.191E-03    4.50      16.6  T
   6    -13.7346523 -0.694991E-08  0.406E-04    4.50      77.8  T
   7    -13.7346523 -0.290651E-09  0.690E-05    4.50     458.6  T
     SCC iter.                  ...        0 min,  0.154 sec
     gradient                   ...        0 min,  0.067 sec
 * total energy  :   -13.5419226 Eh     change       -0.3536025E-02 Eh
   gradient norm :     0.0484915 Eh/α   predicted    -0.2876639E-02 ( -18.65%)
   displ. norm   :     0.2217236 α      lambda       -0.2110054E-02
   maximum displ.:     0.1797202 α      in ANC's #1, #2, #4, ...

........................................................................
.............................. CYCLE    3 ..............................
........................................................................
   1    -13.7382071 -0.137382E+02  0.157E-01    4.60       0.0  T
   2    -13.7382128 -0.569227E-05  0.871E-02    4.62       1.0  T
   3    -13.7382135 -0.752873E-06  0.142E-02    4.62       2.2  T
   4    -13.7382141 -0.581562E-06  0.385E-03    4.62       8.2  T
   5    -13.7382141 -0.131508E-07  0.196E-03    4.62      16.1  T
   6    -13.7382141 -0.268326E-08  0.314E-04    4.62     100.6  T
   7    -13.7382141 -0.179099E-09  0.109E-04    4.62     289.3  T
     SCC iter.                  ...        0 min,  0.117 sec
     gradient                   ...        0 min,  0.062 sec
 * total energy  :   -13.5409347 Eh     change        0.9879622E-03 Eh
   gradient norm :     0.2989947 Eh/α   predicted    -0.1106901E-02 (-212.04%)
   displ. norm   :     0.0467352 α      lambda       -0.3803496E-02
   maximum displ.:     0.0393375 α      in ANC's #1, #4, #21, ...

........................................................................
.............................. CYCLE    4 ..............................
........................................................................
   1    -13.7383670 -0.137384E+02  0.500E-02    4.62       0.0  T
   2    -13.7383692 -0.219419E-05  0.266E-02    4.63       1.2  T
   3    -13.7383693 -0.119226E-06  0.787E-03    4.63       4.0  T
   4    -13.7383694 -0.153610E-07  0.146E-03    4.63      21.7  T
   5    -13.7383694 -0.653527E-09  0.585E-04    4.63      54.1  T
   6    -13.7383694 -0.212973E-09  0.756E-05    4.63     418.1  T
     SCC iter.                  ...        0 min,  0.115 sec
     gradient                   ...        0 min,  0.065 sec
 * total energy  :   -13.5425433 Eh     change       -0.1608628E-02 Eh
   gradient norm :     0.0464785 Eh/α   predicted    -0.1905903E-02 (  18.48%)
   displ. norm   :     0.0830511 α      lambda       -0.3810567E-03
   maximum displ.:     0.0749362 α      in ANC's #1, #2, #4, ...

........................................................................
.............................. CYCLE    5 ..............................
........................................................................
   1    -13.7393218 -0.137393E+02  0.644E-02    4.61       0.0  T
   2    -13.7393231 -0.131906E-05  0.357E-02    4.60       1.0  T
   3    -13.7393232 -0.137563E-06  0.785E-03    4.60       4.0  T
   4    -13.7393233 -0.115834E-06  0.176E-03    4.60      18.0  T
   5    -13.7393233 -0.136884E-09  0.622E-04    4.60      50.8  T
   6    -13.7393233 -0.910315E-09  0.110E-04    4.60     286.8  T
     SCC iter.                  ...        0 min,  0.085 sec
     gradient                   ...        0 min,  0.039 sec
 * total energy  :   -13.5426321 Eh     change       -0.8875673E-04 Eh
   gradient norm :     0.0259275 Eh/α   predicted    -0.1918420E-03 ( 116.14%)
   displ. norm   :     0.0246220 α      lambda       -0.1145326E-03
   maximum displ.:     0.0164541 α      in ANC's #2, #1, #3, ...

........................................................................
.............................. CYCLE    6 ..............................
........................................................................
   1    -13.7392526 -0.137393E+02  0.186E-02    4.60       0.0  T
   2    -13.7392529 -0.334085E-06  0.948E-03    4.61       3.3  T
   3    -13.7392530 -0.185117E-07  0.397E-03    4.61       8.0  T
   4    -13.7392530 -0.151359E-07  0.550E-04    4.61      57.5  T
   5    -13.7392530 -0.286692E-09  0.290E-04    4.61     109.2  T
     SCC iter.                  ...        0 min,  0.067 sec
     gradient                   ...        0 min,  0.042 sec
 * total energy  :   -13.5426794 Eh     change       -0.4736774E-04 Eh
   gradient norm :     0.0105496 Eh/α   predicted    -0.5730154E-04 (  20.97%)
   displ. norm   :     0.0183178 α      lambda       -0.1779586E-04
   maximum displ.:     0.0139359 α      in ANC's #1, #2, #4, ...

........................................................................
.............................. CYCLE    7 ..............................
........................................................................
   1    -13.7391372 -0.137391E+02  0.143E-02    4.61       0.0  T
   2    -13.7391373 -0.895269E-07  0.776E-03    4.61       4.1  T
   3    -13.7391373 -0.686160E-08  0.177E-03    4.61      17.9  T
   4    -13.7391373 -0.403783E-08  0.383E-04    4.61      82.6  T
   5    -13.7391373 -0.260920E-09  0.215E-04    4.61     147.1  T
     SCC iter.                  ...        0 min,  0.081 sec
     gradient                   ...        0 min,  0.062 sec
 * total energy  :   -13.5426861 Eh     change       -0.6690400E-05 Eh
   gradient norm :     0.0032459 Eh/α   predicted    -0.8900990E-05 (  33.04%)
   displ. norm   :     0.0051554 α      lambda       -0.3584046E-05
   maximum displ.:     0.0045264 α      in ANC's #1, #3, #5, ...

........................................................................
.............................. CYCLE    8 ..............................
........................................................................
   1    -13.7392203 -0.137392E+02  0.363E-03    4.61       0.0  T
   2    -13.7392203 -0.690329E-08  0.206E-03    4.61      15.4  T
   3    -13.7392203 -0.553818E-09  0.557E-04    4.61      56.7  T
   4    -13.7392203 -0.498950E-09  0.101E-04    4.61     313.8  T
     SCC iter.                  ...        0 min,  0.053 sec
     gradient                   ...        0 min,  0.055 sec
 * total energy  :   -13.5426883 Eh     change       -0.2125424E-05 Eh
   gradient norm :     0.0013937 Eh/α   predicted    -0.1790769E-05 ( -15.75%)
   displ. norm   :     0.0080679 α      lambda       -0.1504663E-05
   maximum displ.:     0.0050504 α      in ANC's #1, #3, #2, ...

........................................................................
.............................. CYCLE    9 ..............................
........................................................................
   1    -13.7392941 -0.137393E+02  0.542E-03    4.61       0.0  T
   2    -13.7392941 -0.254554E-07  0.292E-03    4.61      10.8  T
   3    -13.7392941 -0.129929E-08  0.112E-03    4.61      28.3  T
   4    -13.7392941 -0.135251E-08  0.144E-04    4.61     219.0  T
   5    -13.7392941 -0.203872E-10  0.719E-05    4.61     439.9  T
     SCC iter.                  ...        0 min,  0.081 sec
     gradient                   ...        0 min,  0.041 sec
 * total energy  :   -13.5426890 Eh     change       -0.7580279E-06 Eh
   gradient norm :     0.0014714 Eh/α   predicted    -0.7531215E-06 (  -0.65%)
   displ. norm   :     0.0052363 α      lambda       -0.7579127E-06
   maximum displ.:     0.0039981 α      in ANC's #2, #1, #3, ...

........................................................................
.............................. CYCLE   10 ..............................
........................................................................
   1    -13.7392277 -0.137392E+02  0.397E-03    4.61       0.0  T
   2    -13.7392277 -0.169760E-07  0.214E-03    4.61      14.8  T
   3    -13.7392277 -0.942931E-09  0.908E-04    4.61      34.8  T
   4    -13.7392277 -0.732879E-09  0.105E-04    4.61     300.1  T
     SCC iter.                  ...        0 min,  0.048 sec
     gradient                   ...        0 min,  0.053 sec
 * total energy  :   -13.5426894 Eh     change       -0.3859335E-06 Eh
   gradient norm :     0.0012436 Eh/α   predicted    -0.3765412E-06 (  -2.43%)
   displ. norm   :     0.0016489 α      lambda       -0.2084287E-06
   maximum displ.:     0.0011343 α      in ANC's #2, #1, #3, ...

........................................................................
.............................. CYCLE   11 ..............................
........................................................................
   1    -13.7392088 -0.137392E+02  0.140E-03    4.61       0.0  T
   2    -13.7392088 -0.206886E-08  0.731E-04    4.61      43.2  T
   3    -13.7392088 -0.994831E-10  0.296E-04    4.61     106.8  T
     SCC iter.                  ...        0 min,  0.060 sec
     gradient                   ...        0 min,  0.063 sec
 * total energy  :   -13.5426895 Eh     change       -0.1127940E-06 Eh
   gradient norm :     0.0003772 Eh/α   predicted    -0.1045868E-06 (  -7.28%)
   displ. norm   :     0.0013961 α      lambda       -0.6799408E-07
   maximum displ.:     0.0009536 α      in ANC's #1, #3, #2, ...

   *** GEOMETRY OPTIMIZATION CONVERGED AFTER 11 ITERATIONS ***

------------------------------------------------------------------------
 total energy gain   :        -0.0043029 Eh       -2.7001 kcal/mol
 total RMSD          :         0.1600481 a0        0.0847 Å
 total power (kW/mol):        -1.0270209 (step)   -5.5605 (real)
------------------------------------------------------------------------

 ANCopt (total)                0 d,  0 h,  0 min,  2.032 sec
 optimizer setup                ...        0 min,  0.000 sec (  0.003%)
 model hessian                  ...        0 min,  0.002 sec (  0.096%)
 ANC generation                 ...        0 min,  0.000 sec (  0.011%)
 coordinate transformation      ...        0 min,  0.000 sec (  0.002%)
 single point calculation       ...        0 min,  1.965 sec ( 96.699%)
 optimization log               ...        0 min,  0.001 sec (  0.045%)
 hessian update                 ...        0 min,  0.062 sec (  3.071%)
 rational function              ...        0 min,  0.001 sec (  0.048%)

================
 final structure:
================
10
 xtb: 6.5.1 (b24c23e)
N           -0.57337991945984        1.18907527361158       -0.19638398667089
C            0.01193662965547       -0.01906175850114       -0.05193395514074
N            1.31127335042131       -0.08521281488595        0.19727853890336
H            1.85884684296090        0.75851536843470        0.27775230772359
H            1.79321801341268       -0.96380193884857        0.31382637375207
N           -0.73200939690071       -1.11357922719951       -0.01935304259667
H           -1.13046225870541        1.40911680873118       -1.00327045307738
H           -0.47095570175644        1.90772808681565        0.49803245032124
H           -1.73549510992532       -1.04857584379234       -0.10259969555122
H           -0.33293444970263       -2.03419694436561        0.08660548233663

 Bond Distances (Angstroems)
 ---------------------------
N1-C2=1.3502         N1-H7=1.0049         N1-H8=1.0046         C2-N1=1.3502         C2-N3=1.3247         C2-N6=1.3238         
N3-C2=1.3247         N3-H4=1.0091         N3-H5=1.0088         H4-N3=1.0091         H5-N3=1.0088         N6-C2=1.3238         
N6-H9=1.0090         N6-H10=1.0090        H7-N1=1.0049         H8-N1=1.0046         H9-N6=1.0090         H10-N6=1.0090        
 N  H  Rav=1.0076 sigma=0.0020  Rmin=1.0046  Rmax=1.0091     6
 N  C  Rav=1.3329 sigma=0.0122  Rmin=1.3238  Rmax=1.3502     3

 selected bond angles (degree)
 --------------------
H7-N1-C2=121.48                H8-N1-C2=121.46                H8-N1-H7=117.06                N3-C2-N1=119.34                
N6-C2-N1=119.92                N6-C2-N3=120.35                H4-N3-C2=120.37                H5-N3-C2=122.26                
H5-N3-H4=117.37                H9-N6-C2=120.24                H10-N6-C2=122.32               H10-N6-H9=117.44               

 selected dihedral angles (degree)
 ---------------------------------
N3-C2-N1-H7=127.24            N3-C2-N1-H8=307.25            N6-C2-N1-H7=300.14            N6-C2-N1-H8=120.16            
H4-N3-C2-N1=359.95            H4-N3-C2-N6=187.08            H5-N3-C2-N1=179.95            H5-N3-C2-N6=  7.08            
H9-N6-C2-N1=  0.03            H9-N6-C2-N3=172.86            H10-N6-C2-N1=179.97           H10-N6-C2-N3=352.80           
           -------------------------------------------------
          |                Final Singlepoint                |
           -------------------------------------------------

          ...................................................
          :                      SETUP                      :
          :.................................................:
          :  # basis functions                  22          :
          :  # atomic orbitals                  22          :
          :  # shells                           14          :
          :  # electrons                        24          :
          :  max. iterations                   250          :
          :  Hamiltonian                  GFN2-xTB          :
          :  restarted?                      false          :
          :  GBSA solvation                  false          :
          :  PC potential                    false          :
          :  electronic temp.          300.0000000     K    :
          :  accuracy                    1.0000000          :
          :  -> integral cutoff          0.2500000E+02      :
          :  -> integral neglect         0.1000000E-07      :
          :  -> SCF convergence          0.1000000E-05 Eh   :
          :  -> wf. convergence          0.1000000E-03 e    :
          :  Broyden damping             0.4000000          :
          ...................................................

 iter      E             dE          RMSdq      gap      omega  full diag
   1    -13.7392088 -0.137392E+02  0.389E-05    4.61       0.0  T
   2    -13.7392088 -0.114753E-11  0.208E-05    4.61    1523.4  T
   3    -13.7392088 -0.532907E-14  0.883E-06    4.61    3582.3  T

   *** convergence criteria satisfied after 3 iterations ***

         #    Occupation            Energy/Eh            Energy/eV
      -------------------------------------------------------------
         1        2.0000           -0.9064729             -24.6664
       ...           ...                  ...                  ...
         6        2.0000           -0.7642785             -20.7971
         7        2.0000           -0.7589880             -20.6531
         8        2.0000           -0.7206034             -19.6086
         9        2.0000           -0.7140025             -19.4290
        10        2.0000           -0.6944846             -18.8979
        11        2.0000           -0.6282264             -17.0949
        12        2.0000           -0.5986343             -16.2897 (HOMO)
        13                         -0.4291497             -11.6778 (LUMO)
        14                         -0.2247564              -6.1159
        15                         -0.1429125              -3.8888
        16                         -0.1320974              -3.5946
        17                         -0.0335856              -0.9139
       ...                                ...                  ...
        22                          0.2866853               7.8011
      -------------------------------------------------------------
                  HL-Gap            0.1694846 Eh            4.6119 eV
             Fermi-level           -0.5138920 Eh          -13.9837 eV

 SCC (total)                   0 d,  0 h,  0 min,  0.140 sec
 SCC setup                      ...        0 min,  0.010 sec (  7.403%)
 Dispersion                     ...        0 min,  0.011 sec (  8.177%)
 classical contributions        ...        0 min,  0.005 sec (  3.914%)
 integral evaluation            ...        0 min,  0.018 sec ( 12.596%)
 iterations                     ...        0 min,  0.050 sec ( 35.556%)
 molecular gradient             ...        0 min,  0.045 sec ( 32.253%)
 printout                       ...        0 min,  0.000 sec (  0.088%)

         :::::::::::::::::::::::::::::::::::::::::::::::::::::
         ::                     SUMMARY                     ::
         :::::::::::::::::::::::::::::::::::::::::::::::::::::
         :: total energy             -13.542689509250 Eh    ::
         :: gradient norm              0.000378196882 Eh/a0 ::
         :: HOMO-LUMO gap              4.611910151317 eV    ::
         ::.................................................::
         :: SCC energy               -13.739208785906 Eh    ::
         :: -> isotropic ES            0.112065821696 Eh    ::
         :: -> anisotropic ES         -0.009904555940 Eh    ::
         :: -> anisotropic XC          0.010520625760 Eh    ::
         :: -> dispersion             -0.003411350306 Eh    ::
         :: repulsion energy           0.196468270709 Eh    ::
         :: add. restraining           0.000048758329 Eh    ::
         :: total charge               1.000000000000 e     ::
         :::::::::::::::::::::::::::::::::::::::::::::::::::::

           -------------------------------------------------
          |                Property Printout                |
           -------------------------------------------------

    * Orbital Energies and Occupations

         #    Occupation            Energy/Eh            Energy/eV
      -------------------------------------------------------------
         1        2.0000           -0.9064729             -24.6664
         2        2.0000           -0.8567659             -23.3138
         3        2.0000           -0.8491232             -23.1058
         4        2.0000           -0.7868497             -21.4113
         5        2.0000           -0.7684901             -20.9117
         6        2.0000           -0.7642785             -20.7971
         7        2.0000           -0.7589880             -20.6531
         8        2.0000           -0.7206034             -19.6086
         9        2.0000           -0.7140025             -19.4290
        10        2.0000           -0.6944846             -18.8979
        11        2.0000           -0.6282264             -17.0949
        12        2.0000           -0.5986343             -16.2897 (HOMO)
        13                         -0.4291497             -11.6778 (LUMO)
        14                         -0.2247564              -6.1159
        15                         -0.1429125              -3.8888
        16                         -0.1320974              -3.5946
        17                         -0.0335856              -0.9139
        18                          0.0053301               0.1450
        19                          0.0710768               1.9341
        20                          0.0819081               2.2288
        21                          0.2792217               7.5980
        22                          0.2866853               7.8011
      -------------------------------------------------------------
                  HL-Gap            0.1694846 Eh            4.6119 eV
             Fermi-level           -0.5138920 Eh          -13.9837 eV

     #   Z          covCN         q      C6AA      α(0)
     1   7 N        2.650    -0.272    27.047     7.724
     2   6 C        2.730     0.261    22.608     7.784
     3   7 N        2.652    -0.208    25.521     7.503
     4   1 H        0.860     0.244     0.905     1.490
     5   1 H        0.860     0.237     0.934     1.514
     6   7 N        2.651    -0.206    25.481     7.497
     7   1 H        0.860     0.230     0.967     1.540
     8   1 H        0.860     0.230     0.963     1.537
     9   1 H        0.860     0.245     0.902     1.487
    10   1 H        0.860     0.238     0.932     1.512

 Mol. C6AA /au·bohr⁶  :        666.378426
 Mol. C8AA /au·bohr⁸  :      13789.635777
 Mol. α(0) /au        :         39.589038


Wiberg/Mayer (AO) data.
largest (>0.10) Wiberg bond orders for each atom

 ---------------------------------------------------------------------------
     #   Z sym  total        # sym  WBO       # sym  WBO       # sym  WBO
 ---------------------------------------------------------------------------
     1   7 N    3.239 --     2 C    1.218     7 H    0.918     8 H    0.916
     2   6 C    3.973 --     6 N    1.372     3 N    1.370     1 N    1.218
     3   7 N    3.465 --     2 C    1.370     5 H    0.923     4 H    0.921
                             6 N    0.137
     4   1 H    0.940 --     3 N    0.921
     5   1 H    0.944 --     3 N    0.923
     6   7 N    3.464 --     2 C    1.372    10 H    0.923     9 H    0.921
                             3 N    0.137
     7   1 H    0.947 --     1 N    0.918
     8   1 H    0.947 --     1 N    0.916
     9   1 H    0.940 --     6 N    0.921
    10   1 H    0.943 --     6 N    0.923
 ---------------------------------------------------------------------------

Topologies differ in total number of bonds
Writing topology from bond orders to xtbtopo.mol

molecular dipole:
                 x           y           z       tot (Debye)
 q only:        0.085      -0.195       0.048
   full:        0.096      -0.217       0.032       0.609
molecular quadrupole (traceless):
                xx          xy          yy          xz          yz          zz
 q only:        3.103       0.054       3.674       2.226      -0.421      -6.777
  q+dip:        3.347      -0.256       4.605       2.977      -0.287      -7.952
   full:        3.095      -0.289       4.388       2.911      -0.221      -7.483

           -------------------------------------------------
          |                Geometry Summary                 |
           -------------------------------------------------

      molecular mass/u    :       60.0784900
   center of mass at/Å    :        0.0034598      -0.0055932      -0.0135057
  moments of inertia/u·Å² :        0.4959324E+02   0.5134882E+02   0.9884227E+02
rotational constants/cm⁻¹ :        0.3399180E+00   0.3282964E+00   0.1705508E+00

 * 9 selected distances

     #   Z          #   Z                                           value/Å
     1   7 N        2   6 C                                       1.3502062 (max)
     2   6 C        3   7 N                                       1.3246732
     3   7 N        4   1 H                                       1.0090541
     3   7 N        5   1 H                                       1.0088474
     2   6 C        6   7 N                                       1.3238149
     1   7 N        7   1 H                                       1.0049005
     1   7 N        8   1 H                                       1.0045730 (min)
     6   7 N        9   1 H                                       1.0090288
     6   7 N       10   1 H                                       1.0089723

 * 2 distinct bonds (by element types)

   Z      Z             #   av. dist./Å        max./Å        min./Å
   1 H    7 N           6     1.0075627     1.0090541     1.0045730
   6 C    7 N           3     1.3328981     1.3502062     1.3238149


optimized geometry written to: xtbopt.xyz


           -------------------------------------------------
          | TOTAL ENERGY              -13.542689509250 Eh   |
          | GRADIENT NORM               0.000378196882 Eh/α |
          | HOMO-LUMO GAP               4.611910151317 eV   |
           -------------------------------------------------

------------------------------------------------------------------------
 * finished run on 2022/11/03 at 12:40:38.181     
------------------------------------------------------------------------
 total:
 * wall-time:     0 d,  0 h,  0 min,  2.499 sec
 *  cpu-time:     0 d,  0 h,  0 min, 19.794 sec
 * ratio c/w:     7.920 speedup
 SCF:
 * wall-time:     0 d,  0 h,  0 min,  0.269 sec
 *  cpu-time:     0 d,  0 h,  0 min,  2.130 sec
 * ratio c/w:     7.915 speedup
 ANC optimizer:
 * wall-time:     0 d,  0 h,  0 min,  2.173 sec
 *  cpu-time:     0 d,  0 h,  0 min, 17.209 sec
 * ratio c/w:     7.921 speedup

