      -----------------------------------------------------------      
     |                   =====================                   |     
     |                           x T B                           |     
     |                   =====================                   |     
     |                         S. Grimme                         |     
     |          Mulliken Center for Theoretical Chemistry        |     
     |                    University of Bonn                     |     
      -----------------------------------------------------------      

   * xtb version 6.5.1 (b24c23e) compiled by 'conda@728c89f4b128' on 2022-07-12

   xtb is free software: you can redistribute it and/or modify it under
   the terms of the GNU Lesser General Public License as published by
   the Free Software Foundation, either version 3 of the License, or
   (at your option) any later version.
   
   xtb is distributed in the hope that it will be useful,
   but WITHOUT ANY WARRANTY; without even the implied warranty of
   MERCHANTABILITY or FITNESS FOR A PARTICULAR PURPOSE.  See the
   GNU Lesser General Public License for more details.
   
   Cite this work as:
   * C. Bannwarth, E. Caldeweyher, S. Ehlert, A. Hansen, P. Pracht,
     J. Seibert, S. Spicher, S. Grimme, WIREs Comput. Mol. Sci., 2020, 11,
     e01493. DOI: 10.1002/wcms.1493
   
   for GFN2-xTB:
   * C. Bannwarth, S. Ehlert and S. Grimme., J. Chem. Theory Comput., 2019,
     15, 1652-1671. DOI: 10.1021/acs.jctc.8b01176
   for GFN1-xTB:
   * S. Grimme, C. Bannwarth, P. Shushkov, J. Chem. Theory Comput., 2017,
     13, 1989-2009. DOI: 10.1021/acs.jctc.7b00118
   for GFN0-xTB:
   * P. Pracht, E. Caldeweyher, S. Ehlert, S. Grimme, ChemRxiv, 2019, preprint.
     DOI: 10.26434/chemrxiv.8326202.v1
   for GFN-FF:
   * S. Spicher and S. Grimme, Angew. Chem. Int. Ed., 2020, 59, 15665-15673.
     DOI: 10.1002/anie.202004239
   
   for ALPB and GBSA implicit solvation:
   * S. Ehlert, M. Stahn, S. Spicher, S. Grimme, J. Chem. Theory Comput.,
     2021, 17, 4250-4261. DOI: 10.1021/acs.jctc.1c00471
   
   for DFT-D4:
   * E. Caldeweyher, C. Bannwarth and S. Grimme, J. Chem. Phys., 2017,
     147, 034112. DOI: 10.1063/1.4993215
   * E. Caldeweyher, S. Ehlert, A. Hansen, H. Neugebauer, S. Spicher,
     C. Bannwarth and S. Grimme, J. Chem. Phys., 2019, 150, 154122.
     DOI: 10.1063/1.5090222
   * E. Caldeweyher, J.-M. Mewes, S. Ehlert and S. Grimme, Phys. Chem. Chem. Phys.
     2020, 22, 8499-8512. DOI: 10.1039/D0CP00502A
   
   for sTDA-xTB:
   * S. Grimme and C. Bannwarth, J. Chem. Phys., 2016, 145, 054103.
     DOI: 10.1063/1.4959605
   
   in the mass-spec context:
   * V. Asgeirsson, C. Bauer and S. Grimme, Chem. Sci., 2017, 8, 4879.
     DOI: 10.1039/c7sc00601b
   * J. Koopman and S. Grimme, ACS Omega 2019, 4, 12, 15120-15133.
     DOI: 10.1021/acsomega.9b02011
   
   for metadynamics refer to:
   * S. Grimme, J. Chem. Theory Comput., 2019, 155, 2847-2862
     DOI: 10.1021/acs.jctc.9b00143
   
   for SPH calculations refer to:
   * S. Spicher and S. Grimme, J. Chem. Theory Comput., 2021, 17, 1701-1714
     DOI: 10.1021/acs.jctc.0c01306
   
   with help from (in alphabetical order)
   P. Atkinson, C. Bannwarth, F. Bohle, G. Brandenburg, E. Caldeweyher
   M. Checinski, S. Dohm, S. Ehlert, S. Ehrlich, I. Gerasimov, C. Hölzer
   A. Katbashev, J. Koopman, C. Lavigne, S. Lehtola, F. März, M. Müller,
   F. Musil, H. Neugebauer, J. Pisarek, C. Plett, P. Pracht, F. Pultar,
   J. Seibert, P. Shushkov, S. Spicher, M. Stahn, M. Steiner, T. Strunk,
   J. Stückrath, T. Rose, and J. Unsleber
   
 * started run on 2022/11/03 at 12:39:55.099     

           -------------------------------------------------
          |                Calculation Setup                |
           -------------------------------------------------

          program call               : /home/chase/psi4conda/envs/xtbenv/bin/xtb --gfn 2 --chrg 1 --uhf 0 guan-opt-1-2-030_preQMOPTprefit_xyzformat.xyz --opt --input xtb-opt-1-2-030_constr.txt
          coordinate file            : guan-opt-1-2-030_preQMOPTprefit_xyzformat.xyz
          omp threads                :                     8

   ID    Z sym.   atoms
    1    7 N      1, 3, 6
    2    6 C      2
    3    1 H      4, 5, 7-10
constraining angle 7 1 2 6 to   30.0219253°, actual value:   30.0219253°
constraining angle 8 1 2 6 to  210.0250119°, actual value: -149.9749881°
constraining angle 9 6 2 1 to    0.0091892°, actual value:    0.0091892°
constraining angle 10 6 2 1 to  179.9940570°, actual value:  179.9940570°
constraining angle 4 3 2 1 to    0.0105040°, actual value:    0.0105040°
constraining angle 5 3 2 1 to  180.0044839°, actual value: -179.9955161°

           -------------------------------------------------
          |                 G F N 2 - x T B                 |
           -------------------------------------------------

        Reference                      10.1021/acs.jctc.8b01176
      * Hamiltonian:
        H0-scaling (s, p, d)           1.850000    2.230000    2.230000
        zeta-weighting                 0.500000
      * Dispersion:
        s8                             2.700000
        a1                             0.520000
        a2                             5.000000
        s9                             5.000000
      * Repulsion:
        kExp                           1.500000    1.000000
        rExp                           1.000000
      * Coulomb:
        alpha                          2.000000
        third order                    shell-resolved
        anisotropic                    true
        a3                             3.000000
        a5                             4.000000
        cn-shift                       1.200000
        cn-exp                         4.000000
        max-rad                        5.000000

q/qsh data taken from xtbrestart
CAMM data taken from xtbrestart

          ...................................................
          :                      SETUP                      :
          :.................................................:
          :  # basis functions                  22          :
          :  # atomic orbitals                  22          :
          :  # shells                           14          :
          :  # electrons                        24          :
          :  max. iterations                   250          :
          :  Hamiltonian                  GFN2-xTB          :
          :  restarted?                       true          :
          :  GBSA solvation                  false          :
          :  PC potential                    false          :
          :  electronic temp.          300.0000000     K    :
          :  accuracy                    1.0000000          :
          :  -> integral cutoff          0.2500000E+02      :
          :  -> integral neglect         0.1000000E-07      :
          :  -> SCF convergence          0.1000000E-05 Eh   :
          :  -> wf. convergence          0.1000000E-03 e    :
          :  Broyden damping             0.4000000          :
          ...................................................

 iter      E             dE          RMSdq      gap      omega  full diag
   1    -13.7383025 -0.137383E+02  0.689E-01    5.34       0.0  T
   2    -13.7387313 -0.428790E-03  0.372E-01    5.23       1.0  T
   3    -13.7387603 -0.289881E-04  0.120E-01    5.25       1.0  T
   4    -13.7387683 -0.793615E-05  0.201E-02    5.25       1.6  T
   5    -13.7387685 -0.204892E-06  0.936E-03    5.24       3.4  T
   6    -13.7387686 -0.142269E-06  0.145E-03    5.25      21.8  T
   7    -13.7387686 -0.418268E-08  0.333E-04    5.25      95.1  T
   8    -13.7387686 -0.134206E-09  0.972E-05    5.25     325.2  T

   *** convergence criteria satisfied after 8 iterations ***

         #    Occupation            Energy/Eh            Energy/eV
      -------------------------------------------------------------
         1        2.0000           -0.9010368             -24.5185
       ...           ...                  ...                  ...
         6        2.0000           -0.7651990             -20.8221
         7        2.0000           -0.7504932             -20.4220
         8        2.0000           -0.7163713             -19.4935
         9        2.0000           -0.7145510             -19.4439
        10        2.0000           -0.7025995             -19.1187
        11        2.0000           -0.6204628             -16.8837
        12        2.0000           -0.6124054             -16.6644 (HOMO)
        13                         -0.4196117             -11.4182 (LUMO)
        14                         -0.2348431              -6.3904
        15                         -0.1468000              -3.9946
        16                         -0.1398744              -3.8062
        17                         -0.0396728              -1.0796
       ...                                ...                  ...
        22                          0.2747095               7.4752
      -------------------------------------------------------------
                  HL-Gap            0.1927937 Eh            5.2462 eV
             Fermi-level           -0.5160085 Eh          -14.0413 eV

 SCC (total)                   0 d,  0 h,  0 min,  0.274 sec
 SCC setup                      ...        0 min,  0.006 sec (  2.348%)
 Dispersion                     ...        0 min,  0.015 sec (  5.367%)
 classical contributions        ...        0 min,  0.005 sec (  2.000%)
 integral evaluation            ...        0 min,  0.028 sec ( 10.368%)
 iterations                     ...        0 min,  0.163 sec ( 59.495%)
 molecular gradient             ...        0 min,  0.056 sec ( 20.361%)
 printout                       ...        0 min,  0.000 sec (  0.054%)

         :::::::::::::::::::::::::::::::::::::::::::::::::::::
         ::                     SUMMARY                     ::
         :::::::::::::::::::::::::::::::::::::::::::::::::::::
         :: total energy             -13.552148986027 Eh    ::
         :: gradient norm              0.029634853636 Eh/a0 ::
         :: HOMO-LUMO gap              5.246183203418 eV    ::
         ::.................................................::
         :: SCC energy               -13.738768610328 Eh    ::
         :: -> isotropic ES            0.110875220201 Eh    ::
         :: -> anisotropic ES         -0.009709175591 Eh    ::
         :: -> anisotropic XC          0.010194752437 Eh    ::
         :: -> dispersion             -0.003400017060 Eh    ::
         :: repulsion energy           0.186617385759 Eh    ::
         :: add. restraining           0.000000000000 Eh    ::
         :: total charge               1.000000000000 e     ::
         :::::::::::::::::::::::::::::::::::::::::::::::::::::

      ----------------------------------------------------------- 
     |                   =====================                   |
     |                        A N C O P T                        |
     |                   =====================                   |
     |               Approximate Normal Coordinate               |
     |                Rational Function Optimizer                |
      ----------------------------------------------------------- 

          ...................................................
          :                      SETUP                      :
          :.................................................:
          :   optimization level            normal          :
          :   max. optcycles                   200          :
          :   ANC micro-cycles                  20          :
          :   degrees of freedom                24          :
          :.................................................:
          :   RF solver                   davidson          :
          :   write xtbopt.log                true          :
          :   linear?                        false          :
          :   energy convergence         0.5000000E-05 Eh   :
          :   grad. convergence          0.1000000E-02 Eh/α :
          :   maximium RF displ.         1.0000000          :
          :   Hlow (freq-cutoff)         0.1000000E-01      :
          :   Hmax (freq-cutoff)         5.0000000          :
          :   S6 in model hess.         20.0000000          :
          ...................................................

generating ANC from model Hessian ...
Using Lindh-Hessian (1995)
 Shifting diagonal of input Hessian by    0.0000000000000000     
 Lowest  eigenvalues of input Hessian
    0.000000    0.000000    0.000000    0.000000    0.000000    0.000000
    0.039573    0.040430    0.043122    0.137865    0.170549    0.180599
    0.181204    0.348220    0.355553    0.412288    0.781693    0.810069
 Highest eigenvalues
    2.312947    2.382807    5.067326    9.936265   10.895925   28.249964


........................................................................
.............................. CYCLE    1 ..............................
........................................................................
   1    -13.7387686 -0.137388E+02  0.231E-05    5.25       0.0  T
   2    -13.7387686 -0.273559E-12  0.131E-05    5.25    2420.5  T
   3    -13.7387686 -0.230926E-13  0.386E-06    5.25    8187.3  T
     SCC iter.                  ...        0 min,  0.078 sec
     gradient                   ...        0 min,  0.067 sec
 * total energy  :   -13.5521490 Eh     change       -0.1309886E-10 Eh
   gradient norm :     0.0296341 Eh/α   predicted     0.0000000E+00 (-100.00%)
   displ. norm   :     0.3018271 α      lambda       -0.5317349E-02
   maximum displ.:     0.1917665 α      in ANC's #1, #2, #3, ...

........................................................................
.............................. CYCLE    2 ..............................
........................................................................
   1    -13.7497556 -0.137498E+02  0.204E-01    5.52       0.0  T
   2    -13.7497641 -0.850297E-05  0.118E-01    5.53       1.0  T
   3    -13.7497658 -0.163584E-05  0.133E-02    5.53       2.4  T
   4    -13.7497663 -0.572411E-06  0.571E-03    5.53       5.5  T
   5    -13.7497664 -0.211506E-07  0.218E-03    5.53      14.5  T
   6    -13.7497664 -0.511908E-08  0.429E-04    5.53      73.6  T
   7    -13.7497664 -0.408926E-09  0.513E-05    5.53     616.5  T
     SCC iter.                  ...        0 min,  0.125 sec
     gradient                   ...        0 min,  0.063 sec
 * total energy  :   -13.5556194 Eh     change       -0.3470424E-02 Eh
   gradient norm :     0.0759819 Eh/α   predicted    -0.2900875E-02 ( -16.41%)
   displ. norm   :     0.2732374 α      lambda       -0.3178827E-02
   maximum displ.:     0.1837088 α      in ANC's #2, #1, #3, ...

........................................................................
.............................. CYCLE    3 ..............................
........................................................................
   1    -13.7551321 -0.137551E+02  0.177E-01    5.67       0.0  T
   2    -13.7551408 -0.866658E-05  0.101E-01    5.68       1.0  T
   3    -13.7551422 -0.142642E-05  0.136E-02    5.68       2.3  T
   4    -13.7551424 -0.252294E-06  0.439E-03    5.68       7.2  T
   5    -13.7551424 -0.362419E-08  0.148E-03    5.68      21.4  T
   6    -13.7551425 -0.468600E-08  0.379E-04    5.68      83.5  T
   7    -13.7551425 -0.312310E-09  0.522E-05    5.68     606.3  T
     SCC iter.                  ...        0 min,  0.136 sec
     gradient                   ...        0 min,  0.052 sec
 * total energy  :   -13.5527265 Eh     change        0.2892899E-02 Eh
   gradient norm :     0.4497546 Eh/α   predicted    -0.1708070E-02 (-159.04%)
   displ. norm   :     0.0462900 α      lambda       -0.7388339E-02
   maximum displ.:     0.0323439 α      in ANC's #2, #3, #21, ...

........................................................................
.............................. CYCLE    4 ..............................
........................................................................
   1    -13.7542717 -0.137543E+02  0.424E-02    5.65       0.0  T
   2    -13.7542725 -0.781690E-06  0.242E-02    5.65       1.3  T
   3    -13.7542726 -0.737747E-07  0.427E-03    5.65       7.4  T
   4    -13.7542726 -0.446377E-07  0.130E-03    5.65      24.3  T
   5    -13.7542726 -0.189101E-08  0.637E-04    5.65      49.7  T
   6    -13.7542726 -0.209534E-09  0.712E-05    5.65     444.4  T
     SCC iter.                  ...        0 min,  0.135 sec
     gradient                   ...        0 min,  0.053 sec
 * total energy  :   -13.5563468 Eh     change       -0.3620274E-02 Eh
   gradient norm :     0.0219983 Eh/α   predicted    -0.3702084E-02 (   2.26%)
   displ. norm   :     0.0558154 α      lambda       -0.1994282E-03
   maximum displ.:     0.0393539 α      in ANC's #1, #2, #4, ...

........................................................................
.............................. CYCLE    5 ..............................
........................................................................
   1    -13.7552344 -0.137552E+02  0.402E-02    5.63       0.0  T
   2    -13.7552354 -0.987764E-06  0.230E-02    5.63       1.4  T
   3    -13.7552355 -0.688751E-07  0.611E-03    5.63       5.2  T
   4    -13.7552355 -0.376227E-07  0.130E-03    5.63      24.3  T
   5    -13.7552355 -0.809704E-09  0.536E-04    5.63      59.0  T
   6    -13.7552355 -0.417060E-09  0.826E-05    5.63     382.6  T
     SCC iter.                  ...        0 min,  0.091 sec
     gradient                   ...        0 min,  0.060 sec
 * total energy  :   -13.5563786 Eh     change       -0.3183673E-04 Eh
   gradient norm :     0.0235247 Eh/α   predicted    -0.1000244E-03 ( 214.18%)
   displ. norm   :     0.0152142 α      lambda       -0.7882949E-04
   maximum displ.:     0.0109482 α      in ANC's #2, #1, #3, ...

........................................................................
.............................. CYCLE    6 ..............................
........................................................................
   1    -13.7552231 -0.137552E+02  0.114E-02    5.62       0.0  T
   2    -13.7552233 -0.156038E-06  0.575E-03    5.63       5.5  T
   3    -13.7552233 -0.711224E-08  0.239E-03    5.63      13.2  T
   4    -13.7552233 -0.328591E-08  0.347E-04    5.63      91.0  T
   5    -13.7552233 -0.166146E-09  0.187E-04    5.63     168.8  T
     SCC iter.                  ...        0 min,  0.096 sec
     gradient                   ...        0 min,  0.061 sec
 * total energy  :   -13.5564128 Eh     change       -0.3413969E-04 Eh
   gradient norm :     0.0059728 Eh/α   predicted    -0.3942366E-04 (  15.48%)
   displ. norm   :     0.0146881 α      lambda       -0.9464846E-05
   maximum displ.:     0.0095774 α      in ANC's #2, #1, #3, ...

........................................................................
.............................. CYCLE    7 ..............................
........................................................................
   1    -13.7550078 -0.137550E+02  0.108E-02    5.63       0.0  T
   2    -13.7550079 -0.655559E-07  0.601E-03    5.63       5.3  T
   3    -13.7550079 -0.501185E-08  0.151E-03    5.63      20.9  T
   4    -13.7550079 -0.187381E-08  0.274E-04    5.63     115.3  T
   5    -13.7550079 -0.442242E-10  0.148E-04    5.63     213.0  T
     SCC iter.                  ...        0 min,  0.078 sec
     gradient                   ...        0 min,  0.071 sec
 * total energy  :   -13.5564161 Eh     change       -0.3289928E-05 Eh
   gradient norm :     0.0025151 Eh/α   predicted    -0.4732711E-05 (  43.85%)
   displ. norm   :     0.0032519 α      lambda       -0.1796092E-05
   maximum displ.:     0.0026873 α      in ANC's #1, #3, #2, ...

........................................................................
.............................. CYCLE    8 ..............................
........................................................................
   1    -13.7550963 -0.137551E+02  0.234E-03    5.63       0.0  T
   2    -13.7550963 -0.330590E-08  0.133E-03    5.63      23.7  T
   3    -13.7550963 -0.100140E-09  0.354E-04    5.63      89.2  T
   4    -13.7550963 -0.260343E-09  0.732E-05    5.63     432.1  T
     SCC iter.                  ...        0 min,  0.085 sec
     gradient                   ...        0 min,  0.062 sec
 * total energy  :   -13.5564170 Eh     change       -0.9220229E-06 Eh
   gradient norm :     0.0010830 Eh/α   predicted    -0.8975237E-06 (  -2.66%)
   displ. norm   :     0.0034714 α      lambda       -0.4985283E-06
   maximum displ.:     0.0023283 α      in ANC's #3, #1, #2, ...

........................................................................
.............................. CYCLE    9 ..............................
........................................................................
   1    -13.7551675 -0.137552E+02  0.287E-03    5.63       0.0  T
   2    -13.7551675 -0.532580E-08  0.163E-03    5.63      19.4  T
   3    -13.7551675 -0.284377E-10  0.498E-04    5.63      63.5  T
   4    -13.7551675 -0.743272E-09  0.827E-05    5.63     382.5  T
     SCC iter.                  ...        0 min,  0.056 sec
     gradient                   ...        0 min,  0.038 sec
 * total energy  :   -13.5564171 Eh     change       -0.1709207E-06 Eh
   gradient norm :     0.0010015 Eh/α   predicted    -0.2503270E-06 (  46.46%)
   displ. norm   :     0.0025639 α      lambda       -0.2760906E-06
   maximum displ.:     0.0019050 α      in ANC's #2, #1, #4, ...

........................................................................
.............................. CYCLE   10 ..............................
........................................................................
   1    -13.7551065 -0.137551E+02  0.207E-03    5.63       0.0  T
   2    -13.7551065 -0.380908E-08  0.115E-03    5.63      27.6  T
   3    -13.7551065 -0.190770E-09  0.402E-04    5.63      78.7  T
   4    -13.7551065 -0.151307E-09  0.589E-05    5.63     536.7  T
     SCC iter.                  ...        0 min,  0.047 sec
     gradient                   ...        0 min,  0.033 sec
 * total energy  :   -13.5564173 Eh     change       -0.2027186E-06 Eh
   gradient norm :     0.0002176 Eh/α   predicted    -0.1372365E-06 ( -32.30%)
   displ. norm   :     0.0002840 α      lambda       -0.2438003E-07
   maximum displ.:     0.0001507 α      in ANC's #5, #3, #2, ...

   *** GEOMETRY OPTIMIZATION CONVERGED AFTER 10 ITERATIONS ***

------------------------------------------------------------------------
 total energy gain   :        -0.0042684 Eh       -2.6784 kcal/mol
 total RMSD          :         0.1604867 a0        0.0849 Å
 total power (kW/mol):        -1.1206580 (step)   -5.6510 (real)
------------------------------------------------------------------------

 ANCopt (total)                0 d,  0 h,  0 min,  1.983 sec
 optimizer setup                ...        0 min,  0.000 sec (  0.003%)
 model hessian                  ...        0 min,  0.005 sec (  0.253%)
 ANC generation                 ...        0 min,  0.000 sec (  0.011%)
 coordinate transformation      ...        0 min,  0.000 sec (  0.003%)
 single point calculation       ...        0 min,  1.923 sec ( 96.968%)
 optimization log               ...        0 min,  0.001 sec (  0.042%)
 hessian update                 ...        0 min,  0.053 sec (  2.652%)
 rational function              ...        0 min,  0.001 sec (  0.045%)

================
 final structure:
================
10
 xtb: 6.5.1 (b24c23e)
N           -0.57973975492227        1.18635775431368       -0.15756891471742
C           -0.00916582224997       -0.00364348838665        0.03669581238024
N            1.27925868997021       -0.07357066538410        0.34919704576661
H            1.83817654248683        0.75914541301158        0.44373180377259
H            1.73834573013328       -0.95718332561035        0.50144112229822
N           -0.70196693432767       -1.11518604322379       -0.17836044215259
H           -1.56869818077633        1.32106227050702       -0.02830302632735
H           -0.04045753541464        1.98779726215621       -0.43937033282708
H           -1.65979032079918       -1.07821778609903       -0.48824728766554
H           -0.29592341410027       -2.02655637128458       -0.03926278052765

 Bond Distances (Angstroems)
 ---------------------------
N1-C2=1.3339         N1-H7=1.0064         N1-H8=1.0063         C2-N1=1.3339         C2-N3=1.3276         C2-N6=1.3273         
N3-C2=1.3276         N3-H4=1.0073         N3-H5=1.0073         H4-N3=1.0073         H5-N3=1.0073         N6-C2=1.3273         
N6-H9=1.0074         N6-H10=1.0074        H7-N1=1.0064         H8-N1=1.0063         H9-N6=1.0074         H10-N6=1.0074        
 N  H  Rav=1.0070 sigma=0.0005  Rmin=1.0063  Rmax=1.0074     6
 N  C  Rav=1.3296 sigma=0.0031  Rmin=1.3273  Rmax=1.3339     3

 selected bond angles (degree)
 --------------------
H7-N1-C2=121.40                H8-N1-C2=121.47                H8-N1-H7=117.13                N3-C2-N1=119.76                
N6-C2-N1=120.01                N6-C2-N3=120.04                H4-N3-C2=121.13                H5-N3-C2=121.61                
H5-N3-H4=117.26                H9-N6-C2=121.02                H10-N6-C2=121.66               H10-N6-H9=117.32               

 selected dihedral angles (degree)
 ---------------------------------
N3-C2-N1-H7=204.95            N3-C2-N1-H8= 24.94            N6-C2-N1-H7= 29.91            N6-C2-N1-H8=209.90            
H4-N3-C2-N1=  0.04            H4-N3-C2-N6=175.07            H5-N3-C2-N1=180.03            H5-N3-C2-N6=355.07            
H9-N6-C2-N1=  0.00            H9-N6-C2-N3=184.96            H10-N6-C2-N1=180.02           H10-N6-C2-N3=  5.00           
           -------------------------------------------------
          |                Final Singlepoint                |
           -------------------------------------------------

          ...................................................
          :                      SETUP                      :
          :.................................................:
          :  # basis functions                  22          :
          :  # atomic orbitals                  22          :
          :  # shells                           14          :
          :  # electrons                        24          :
          :  max. iterations                   250          :
          :  Hamiltonian                  GFN2-xTB          :
          :  restarted?                      false          :
          :  GBSA solvation                  false          :
          :  PC potential                    false          :
          :  electronic temp.          300.0000000     K    :
          :  accuracy                    1.0000000          :
          :  -> integral cutoff          0.2500000E+02      :
          :  -> integral neglect         0.1000000E-07      :
          :  -> SCF convergence          0.1000000E-05 Eh   :
          :  -> wf. convergence          0.1000000E-03 e    :
          :  Broyden damping             0.4000000          :
          ...................................................

 iter      E             dE          RMSdq      gap      omega  full diag
   1    -13.7551065 -0.137551E+02  0.362E-05    5.63       0.0  T
   2    -13.7551065 -0.994760E-12  0.192E-05    5.63    1648.4  T
   3    -13.7551065 -0.888178E-14  0.934E-06    5.63    3385.5  T

   *** convergence criteria satisfied after 3 iterations ***

         #    Occupation            Energy/Eh            Energy/eV
      -------------------------------------------------------------
         1        2.0000           -0.9070556             -24.6822
       ...           ...                  ...                  ...
         6        2.0000           -0.7681957             -20.9037
         7        2.0000           -0.7530927             -20.4927
         8        2.0000           -0.7176947             -19.5295
         9        2.0000           -0.7169513             -19.5092
        10        2.0000           -0.7086405             -19.2831
        11        2.0000           -0.6217915             -16.9198
        12        2.0000           -0.6156544             -16.7528 (HOMO)
        13                         -0.4088579             -11.1256 (LUMO)
        14                         -0.2280902              -6.2067
        15                         -0.1351318              -3.6771
        16                         -0.1304792              -3.5505
        17                         -0.0336818              -0.9165
       ...                                ...                  ...
        22                          0.3012846               8.1984
      -------------------------------------------------------------
                  HL-Gap            0.2067965 Eh            5.6272 eV
             Fermi-level           -0.5122562 Eh          -13.9392 eV

 SCC (total)                   0 d,  0 h,  0 min,  0.097 sec
 SCC setup                      ...        0 min,  0.004 sec (  4.142%)
 Dispersion                     ...        0 min,  0.007 sec (  7.586%)
 classical contributions        ...        0 min,  0.005 sec (  4.631%)
 integral evaluation            ...        0 min,  0.011 sec ( 11.512%)
 iterations                     ...        0 min,  0.034 sec ( 34.976%)
 molecular gradient             ...        0 min,  0.036 sec ( 37.015%)
 printout                       ...        0 min,  0.000 sec (  0.124%)

         :::::::::::::::::::::::::::::::::::::::::::::::::::::
         ::                     SUMMARY                     ::
         :::::::::::::::::::::::::::::::::::::::::::::::::::::
         :: total energy             -13.556417347006 Eh    ::
         :: gradient norm              0.000217570277 Eh/a0 ::
         :: HOMO-LUMO gap              5.627218125799 eV    ::
         ::.................................................::
         :: SCC energy               -13.755106478957 Eh    ::
         :: -> isotropic ES            0.111299385127 Eh    ::
         :: -> anisotropic ES         -0.009568370479 Eh    ::
         :: -> anisotropic XC          0.009897509275 Eh    ::
         :: -> dispersion             -0.003410899575 Eh    ::
         :: repulsion energy           0.198665027166 Eh    ::
         :: add. restraining           0.000022059527 Eh    ::
         :: total charge               1.000000000000 e     ::
         :::::::::::::::::::::::::::::::::::::::::::::::::::::

           -------------------------------------------------
          |                Property Printout                |
           -------------------------------------------------

    * Orbital Energies and Occupations

         #    Occupation            Energy/Eh            Energy/eV
      -------------------------------------------------------------
         1        2.0000           -0.9070556             -24.6822
         2        2.0000           -0.8553368             -23.2749
         3        2.0000           -0.8537086             -23.2306
         4        2.0000           -0.7865724             -21.4037
         5        2.0000           -0.7691511             -20.9297
         6        2.0000           -0.7681957             -20.9037
         7        2.0000           -0.7530927             -20.4927
         8        2.0000           -0.7176947             -19.5295
         9        2.0000           -0.7169513             -19.5092
        10        2.0000           -0.7086405             -19.2831
        11        2.0000           -0.6217915             -16.9198
        12        2.0000           -0.6156544             -16.7528 (HOMO)
        13                         -0.4088579             -11.1256 (LUMO)
        14                         -0.2280902              -6.2067
        15                         -0.1351318              -3.6771
        16                         -0.1304792              -3.5505
        17                         -0.0336818              -0.9165
        18                         -0.0202892              -0.5521
        19                          0.0721524               1.9634
        20                          0.0787852               2.1439
        21                          0.3006027               8.1798
        22                          0.3012846               8.1984
      -------------------------------------------------------------
                  HL-Gap            0.2067965 Eh            5.6272 eV
             Fermi-level           -0.5122562 Eh          -13.9392 eV

     #   Z          covCN         q      C6AA      α(0)
     1   7 N        2.652    -0.234    26.126     7.591
     2   6 C        2.730     0.256    22.691     7.799
     3   7 N        2.653    -0.218    25.756     7.537
     4   1 H        0.860     0.237     0.935     1.515
     5   1 H        0.860     0.235     0.943     1.521
     6   7 N        2.652    -0.217    25.739     7.535
     7   1 H        0.860     0.234     0.950     1.527
     8   1 H        0.860     0.234     0.948     1.525
     9   1 H        0.860     0.238     0.933     1.513
    10   1 H        0.860     0.235     0.942     1.520

 Mol. C6AA /au·bohr⁶  :        666.072560
 Mol. C8AA /au·bohr⁸  :      13777.055441
 Mol. α(0) /au        :         39.583772


Wiberg/Mayer (AO) data.
largest (>0.10) Wiberg bond orders for each atom

 ---------------------------------------------------------------------------
     #   Z sym  total        # sym  WBO       # sym  WBO       # sym  WBO
 ---------------------------------------------------------------------------
     1   7 N    3.373 --     2 C    1.299     7 H    0.925     8 H    0.924
     2   6 C    3.975 --     6 N    1.336     3 N    1.336     1 N    1.299
     3   7 N    3.427 --     2 C    1.336     5 H    0.925     4 H    0.925
                             6 N    0.112
     4   1 H    0.944 --     3 N    0.925
     5   1 H    0.945 --     3 N    0.925
     6   7 N    3.427 --     2 C    1.336    10 H    0.925     9 H    0.925
                             3 N    0.112
     7   1 H    0.945 --     1 N    0.925
     8   1 H    0.945 --     1 N    0.924
     9   1 H    0.944 --     6 N    0.925
    10   1 H    0.945 --     6 N    0.925
 ---------------------------------------------------------------------------

Topologies differ in total number of bonds
Writing topology from bond orders to xtbtopo.mol

molecular dipole:
                 x           y           z       tot (Debye)
 q only:        0.022      -0.048      -0.005
   full:        0.021      -0.053       0.009       0.145
molecular quadrupole (traceless):
                xx          xy          yy          xz          yz          zz
 q only:        3.471       0.077       4.044       2.476      -0.515      -7.514
  q+dip:        4.410       0.056       5.073       2.784      -0.894      -9.482
   full:        4.237       0.054       4.860       2.641      -0.875      -9.097

           -------------------------------------------------
          |                Geometry Summary                 |
           -------------------------------------------------

      molecular mass/u    :       60.0784900
   center of mass at/Å    :       -0.0022076      -0.0011862       0.0095903
  moments of inertia/u·Å² :        0.4965219E+02   0.5017145E+02   0.9917290E+02
rotational constants/cm⁻¹ :        0.3395144E+00   0.3360005E+00   0.1699822E+00

 * 9 selected distances

     #   Z          #   Z                                           value/Å
     1   7 N        2   6 C                                       1.3339403 (max)
     2   6 C        3   7 N                                       1.3276238
     3   7 N        4   1 H                                       1.0073442
     3   7 N        5   1 H                                       1.0073285
     2   6 C        6   7 N                                       1.3273092
     1   7 N        7   1 H                                       1.0064263
     1   7 N        8   1 H                                       1.0062519 (min)
     6   7 N        9   1 H                                       1.0073839
     6   7 N       10   1 H                                       1.0073805

 * 2 distinct bonds (by element types)

   Z      Z             #   av. dist./Å        max./Å        min./Å
   1 H    7 N           6     1.0070192     1.0073839     1.0062519
   6 C    7 N           3     1.3296244     1.3339403     1.3273092


optimized geometry written to: xtbopt.xyz


           -------------------------------------------------
          | TOTAL ENERGY              -13.556417347006 Eh   |
          | GRADIENT NORM               0.000217570277 Eh/α |
          | HOMO-LUMO GAP               5.627218125799 eV   |
           -------------------------------------------------

------------------------------------------------------------------------
 * finished run on 2022/11/03 at 12:39:57.514     
------------------------------------------------------------------------
 total:
 * wall-time:     0 d,  0 h,  0 min,  2.415 sec
 *  cpu-time:     0 d,  0 h,  0 min, 19.222 sec
 * ratio c/w:     7.958 speedup
 SCF:
 * wall-time:     0 d,  0 h,  0 min,  0.274 sec
 *  cpu-time:     0 d,  0 h,  0 min,  2.190 sec
 * ratio c/w:     7.988 speedup
 ANC optimizer:
 * wall-time:     0 d,  0 h,  0 min,  2.081 sec
 *  cpu-time:     0 d,  0 h,  0 min, 16.552 sec
 * ratio c/w:     7.954 speedup

