      -----------------------------------------------------------      
     |                   =====================                   |     
     |                           x T B                           |     
     |                   =====================                   |     
     |                         S. Grimme                         |     
     |          Mulliken Center for Theoretical Chemistry        |     
     |                    University of Bonn                     |     
      -----------------------------------------------------------      

   * xtb version 6.5.1 (b24c23e) compiled by 'conda@728c89f4b128' on 2022-07-12

   xtb is free software: you can redistribute it and/or modify it under
   the terms of the GNU Lesser General Public License as published by
   the Free Software Foundation, either version 3 of the License, or
   (at your option) any later version.
   
   xtb is distributed in the hope that it will be useful,
   but WITHOUT ANY WARRANTY; without even the implied warranty of
   MERCHANTABILITY or FITNESS FOR A PARTICULAR PURPOSE.  See the
   GNU Lesser General Public License for more details.
   
   Cite this work as:
   * C. Bannwarth, E. Caldeweyher, S. Ehlert, A. Hansen, P. Pracht,
     J. Seibert, S. Spicher, S. Grimme, WIREs Comput. Mol. Sci., 2020, 11,
     e01493. DOI: 10.1002/wcms.1493
   
   for GFN2-xTB:
   * C. Bannwarth, S. Ehlert and S. Grimme., J. Chem. Theory Comput., 2019,
     15, 1652-1671. DOI: 10.1021/acs.jctc.8b01176
   for GFN1-xTB:
   * S. Grimme, C. Bannwarth, P. Shushkov, J. Chem. Theory Comput., 2017,
     13, 1989-2009. DOI: 10.1021/acs.jctc.7b00118
   for GFN0-xTB:
   * P. Pracht, E. Caldeweyher, S. Ehlert, S. Grimme, ChemRxiv, 2019, preprint.
     DOI: 10.26434/chemrxiv.8326202.v1
   for GFN-FF:
   * S. Spicher and S. Grimme, Angew. Chem. Int. Ed., 2020, 59, 15665-15673.
     DOI: 10.1002/anie.202004239
   
   for ALPB and GBSA implicit solvation:
   * S. Ehlert, M. Stahn, S. Spicher, S. Grimme, J. Chem. Theory Comput.,
     2021, 17, 4250-4261. DOI: 10.1021/acs.jctc.1c00471
   
   for DFT-D4:
   * E. Caldeweyher, C. Bannwarth and S. Grimme, J. Chem. Phys., 2017,
     147, 034112. DOI: 10.1063/1.4993215
   * E. Caldeweyher, S. Ehlert, A. Hansen, H. Neugebauer, S. Spicher,
     C. Bannwarth and S. Grimme, J. Chem. Phys., 2019, 150, 154122.
     DOI: 10.1063/1.5090222
   * E. Caldeweyher, J.-M. Mewes, S. Ehlert and S. Grimme, Phys. Chem. Chem. Phys.
     2020, 22, 8499-8512. DOI: 10.1039/D0CP00502A
   
   for sTDA-xTB:
   * S. Grimme and C. Bannwarth, J. Chem. Phys., 2016, 145, 054103.
     DOI: 10.1063/1.4959605
   
   in the mass-spec context:
   * V. Asgeirsson, C. Bauer and S. Grimme, Chem. Sci., 2017, 8, 4879.
     DOI: 10.1039/c7sc00601b
   * J. Koopman and S. Grimme, ACS Omega 2019, 4, 12, 15120-15133.
     DOI: 10.1021/acsomega.9b02011
   
   for metadynamics refer to:
   * S. Grimme, J. Chem. Theory Comput., 2019, 155, 2847-2862
     DOI: 10.1021/acs.jctc.9b00143
   
   for SPH calculations refer to:
   * S. Spicher and S. Grimme, J. Chem. Theory Comput., 2021, 17, 1701-1714
     DOI: 10.1021/acs.jctc.0c01306
   
   with help from (in alphabetical order)
   P. Atkinson, C. Bannwarth, F. Bohle, G. Brandenburg, E. Caldeweyher
   M. Checinski, S. Dohm, S. Ehlert, S. Ehrlich, I. Gerasimov, C. Hölzer
   A. Katbashev, J. Koopman, C. Lavigne, S. Lehtola, F. März, M. Müller,
   F. Musil, H. Neugebauer, J. Pisarek, C. Plett, P. Pracht, F. Pultar,
   J. Seibert, P. Shushkov, S. Spicher, M. Stahn, M. Steiner, T. Strunk,
   J. Stückrath, T. Rose, and J. Unsleber
   
 * started run on 2022/11/03 at 12:39:59.453     

           -------------------------------------------------
          |                Calculation Setup                |
           -------------------------------------------------

          program call               : /home/chase/psi4conda/envs/xtbenv/bin/xtb --gfn 2 --chrg 1 --uhf 0 guan-opt-1-2-060_preQMOPTprefit_xyzformat.xyz --opt --input xtb-opt-1-2-060_constr.txt
          coordinate file            : guan-opt-1-2-060_preQMOPTprefit_xyzformat.xyz
          omp threads                :                     8

   ID    Z sym.   atoms
    1    7 N      1, 3, 6
    2    6 C      2
    3    1 H      4, 5, 7-10
constraining angle 7 1 2 6 to   60.0179781°, actual value:   60.0179781°
constraining angle 8 1 2 6 to  240.0177445°, actual value: -119.9822555°
constraining angle 9 6 2 1 to    0.0088151°, actual value:    0.0088151°
constraining angle 10 6 2 1 to  179.9961164°, actual value:  179.9961164°
constraining angle 4 3 2 1 to    0.0065274°, actual value:    0.0065274°
constraining angle 5 3 2 1 to  180.0025955°, actual value: -179.9974045°

           -------------------------------------------------
          |                 G F N 2 - x T B                 |
           -------------------------------------------------

        Reference                      10.1021/acs.jctc.8b01176
      * Hamiltonian:
        H0-scaling (s, p, d)           1.850000    2.230000    2.230000
        zeta-weighting                 0.500000
      * Dispersion:
        s8                             2.700000
        a1                             0.520000
        a2                             5.000000
        s9                             5.000000
      * Repulsion:
        kExp                           1.500000    1.000000
        rExp                           1.000000
      * Coulomb:
        alpha                          2.000000
        third order                    shell-resolved
        anisotropic                    true
        a3                             3.000000
        a5                             4.000000
        cn-shift                       1.200000
        cn-exp                         4.000000
        max-rad                        5.000000

q/qsh data taken from xtbrestart
CAMM data taken from xtbrestart

          ...................................................
          :                      SETUP                      :
          :.................................................:
          :  # basis functions                  22          :
          :  # atomic orbitals                  22          :
          :  # shells                           14          :
          :  # electrons                        24          :
          :  max. iterations                   250          :
          :  Hamiltonian                  GFN2-xTB          :
          :  restarted?                       true          :
          :  GBSA solvation                  false          :
          :  PC potential                    false          :
          :  electronic temp.          300.0000000     K    :
          :  accuracy                    1.0000000          :
          :  -> integral cutoff          0.2500000E+02      :
          :  -> integral neglect         0.1000000E-07      :
          :  -> SCF convergence          0.1000000E-05 Eh   :
          :  -> wf. convergence          0.1000000E-03 e    :
          :  Broyden damping             0.4000000          :
          ...................................................

 iter      E             dE          RMSdq      gap      omega  full diag
   1    -13.7240074 -0.137240E+02  0.952E-01    4.71       0.0  T
   2    -13.7259569 -0.194951E-02  0.433E-01    4.30       1.0  T
   3    -13.7259915 -0.346298E-04  0.183E-01    4.26       1.0  T
   4    -13.7259978 -0.622596E-05  0.372E-02    4.27       1.0  T
   5    -13.7260036 -0.581390E-05  0.151E-02    4.26       2.1  T
   6    -13.7260037 -0.835423E-07  0.208E-03    4.26      15.2  T
   7    -13.7260037 -0.585339E-08  0.762E-04    4.26      41.5  T
   8    -13.7260037 -0.777524E-09  0.226E-04    4.26     139.8  T

   *** convergence criteria satisfied after 8 iterations ***

         #    Occupation            Energy/Eh            Energy/eV
      -------------------------------------------------------------
         1        2.0000           -0.9018170             -24.5397
       ...           ...                  ...                  ...
         6        2.0000           -0.7608829             -20.7047
         7        2.0000           -0.7577882             -20.6205
         8        2.0000           -0.7199166             -19.5899
         9        2.0000           -0.7123228             -19.3833
        10        2.0000           -0.6889446             -18.7471
        11        2.0000           -0.6273425             -17.0709
        12        2.0000           -0.5944598             -16.1761 (HOMO)
        13                         -0.4378267             -11.9139 (LUMO)
        14                         -0.2307275              -6.2784
        15                         -0.1491905              -4.0597
        16                         -0.1372282              -3.7342
        17                         -0.0395237              -1.0755
       ...                                ...                  ...
        22                          0.2740972               7.4586
      -------------------------------------------------------------
                  HL-Gap            0.1566332 Eh            4.2622 eV
             Fermi-level           -0.5161432 Eh          -14.0450 eV

 SCC (total)                   0 d,  0 h,  0 min,  0.249 sec
 SCC setup                      ...        0 min,  0.007 sec (  2.965%)
 Dispersion                     ...        0 min,  0.021 sec (  8.540%)
 classical contributions        ...        0 min,  0.014 sec (  5.801%)
 integral evaluation            ...        0 min,  0.018 sec (  7.344%)
 iterations                     ...        0 min,  0.125 sec ( 50.028%)
 molecular gradient             ...        0 min,  0.063 sec ( 25.260%)
 printout                       ...        0 min,  0.000 sec (  0.056%)

         :::::::::::::::::::::::::::::::::::::::::::::::::::::
         ::                     SUMMARY                     ::
         :::::::::::::::::::::::::::::::::::::::::::::::::::::
         :: total energy             -13.538375744795 Eh    ::
         :: gradient norm              0.041254231188 Eh/a0 ::
         :: HOMO-LUMO gap              4.262204975966 eV    ::
         ::.................................................::
         :: SCC energy               -13.726003668196 Eh    ::
         :: -> isotropic ES            0.111912698223 Eh    ::
         :: -> anisotropic ES         -0.009840584962 Eh    ::
         :: -> anisotropic XC          0.010861563088 Eh    ::
         :: -> dispersion             -0.003403856171 Eh    ::
         :: repulsion energy           0.187625513822 Eh    ::
         :: add. restraining           0.000000000000 Eh    ::
         :: total charge               1.000000000000 e     ::
         :::::::::::::::::::::::::::::::::::::::::::::::::::::

      ----------------------------------------------------------- 
     |                   =====================                   |
     |                        A N C O P T                        |
     |                   =====================                   |
     |               Approximate Normal Coordinate               |
     |                Rational Function Optimizer                |
      ----------------------------------------------------------- 

          ...................................................
          :                      SETUP                      :
          :.................................................:
          :   optimization level            normal          :
          :   max. optcycles                   200          :
          :   ANC micro-cycles                  20          :
          :   degrees of freedom                24          :
          :.................................................:
          :   RF solver                   davidson          :
          :   write xtbopt.log                true          :
          :   linear?                        false          :
          :   energy convergence         0.5000000E-05 Eh   :
          :   grad. convergence          0.1000000E-02 Eh/α :
          :   maximium RF displ.         1.0000000          :
          :   Hlow (freq-cutoff)         0.1000000E-01      :
          :   Hmax (freq-cutoff)         5.0000000          :
          :   S6 in model hess.         20.0000000          :
          ...................................................

generating ANC from model Hessian ...
Using Lindh-Hessian (1995)
 Shifting diagonal of input Hessian by    0.0000000000000000     
 Lowest  eigenvalues of input Hessian
    0.000000    0.000000    0.000000    0.000000    0.000000    0.000000
    0.039344    0.040290    0.049066    0.137671    0.152251    0.180734
    0.182057    0.340365    0.357100    0.413388    0.758065    0.810619
 Highest eigenvalues
    2.238625    2.324101    6.834397   10.070635   10.681334   26.556228


........................................................................
.............................. CYCLE    1 ..............................
........................................................................
   1    -13.7260037 -0.137260E+02  0.351E-05    4.26       0.0  T
   2    -13.7260037 -0.307310E-12  0.206E-05    4.26    1536.8  T
   3    -13.7260037 -0.337508E-13  0.302E-06    4.26   10477.1  T
     SCC iter.                  ...        0 min,  0.047 sec
     gradient                   ...        0 min,  0.040 sec
 * total energy  :   -13.5383757 Eh     change       -0.6214940E-10 Eh
   gradient norm :     0.0412525 Eh/α   predicted     0.0000000E+00 (-100.00%)
   displ. norm   :     0.2928340 α      lambda       -0.5310233E-02
   maximum displ.:     0.2615229 α      in ANC's #1, #2, #4, ...

........................................................................
.............................. CYCLE    2 ..............................
........................................................................
   1    -13.7346410 -0.137346E+02  0.216E-01    4.49       0.0  T
   2    -13.7346483 -0.730187E-05  0.123E-01    4.50       1.0  T
   3    -13.7346496 -0.131226E-05  0.157E-02    4.50       2.0  T
   4    -13.7346509 -0.121433E-05  0.572E-03    4.50       5.5  T
   5    -13.7346509 -0.647266E-08  0.194E-03    4.50      16.3  T
   6    -13.7346509 -0.755789E-08  0.409E-04    4.50      77.4  T
   7    -13.7346509 -0.300441E-09  0.677E-05    4.50     467.1  T
     SCC iter.                  ...        0 min,  0.161 sec
     gradient                   ...        0 min,  0.048 sec
 * total energy  :   -13.5419192 Eh     change       -0.3543477E-02 Eh
   gradient norm :     0.0486704 Eh/α   predicted    -0.2882800E-02 ( -18.64%)
   displ. norm   :     0.2223684 α      lambda       -0.2121918E-02
   maximum displ.:     0.1798667 α      in ANC's #1, #2, #4, ...

........................................................................
.............................. CYCLE    3 ..............................
........................................................................
   1    -13.7381895 -0.137382E+02  0.153E-01    4.60       0.0  T
   2    -13.7381952 -0.573298E-05  0.862E-02    4.62       1.0  T
   3    -13.7381959 -0.738974E-06  0.135E-02    4.62       2.3  T
   4    -13.7381965 -0.606341E-06  0.399E-03    4.62       7.9  T
   5    -13.7381966 -0.125483E-07  0.203E-03    4.62      15.6  T
   6    -13.7381966 -0.309932E-08  0.323E-04    4.62      98.0  T
   7    -13.7381966 -0.186127E-09  0.108E-04    4.62     292.6  T
     SCC iter.                  ...        0 min,  0.117 sec
     gradient                   ...        0 min,  0.051 sec
 * total energy  :   -13.5409217 Eh     change        0.9975541E-03 Eh
   gradient norm :     0.3000920 Eh/α   predicted    -0.1113427E-02 (-211.62%)
   displ. norm   :     0.0464443 α      lambda       -0.3828783E-02
   maximum displ.:     0.0389942 α      in ANC's #1, #4, #21, ...

........................................................................
.............................. CYCLE    4 ..............................
........................................................................
   1    -13.7383521 -0.137384E+02  0.484E-02    4.62       0.0  T
   2    -13.7383543 -0.219585E-05  0.259E-02    4.63       1.2  T
   3    -13.7383544 -0.118747E-06  0.790E-03    4.63       4.0  T
   4    -13.7383544 -0.153305E-07  0.147E-03    4.63      21.5  T
   5    -13.7383544 -0.629802E-09  0.576E-04    4.63      54.9  T
   6    -13.7383544 -0.222926E-09  0.752E-05    4.63     420.4  T
     SCC iter.                  ...        0 min,  0.130 sec
     gradient                   ...        0 min,  0.050 sec
 * total energy  :   -13.5425434 Eh     change       -0.1621768E-02 Eh
   gradient norm :     0.0463816 Eh/α   predicted    -0.1918522E-02 (  18.30%)
   displ. norm   :     0.0829534 α      lambda       -0.3808683E-03
   maximum displ.:     0.0747735 α      in ANC's #1, #2, #4, ...

........................................................................
.............................. CYCLE    5 ..............................
........................................................................
   1    -13.7393246 -0.137393E+02  0.617E-02    4.61       0.0  T
   2    -13.7393259 -0.132351E-05  0.349E-02    4.60       1.0  T
   3    -13.7393261 -0.134146E-06  0.746E-03    4.60       4.2  T
   4    -13.7393262 -0.119425E-06  0.180E-03    4.60      17.5  T
   5    -13.7393262 -0.316653E-10  0.636E-04    4.60      49.7  T
   6    -13.7393262 -0.984123E-09  0.111E-04    4.60     286.1  T
     SCC iter.                  ...        0 min,  0.084 sec
     gradient                   ...        0 min,  0.053 sec
 * total energy  :   -13.5426320 Eh     change       -0.8852955E-04 Eh
   gradient norm :     0.0259308 Eh/α   predicted    -0.1917437E-03 ( 116.59%)
   displ. norm   :     0.0246743 α      lambda       -0.1147223E-03
   maximum displ.:     0.0165474 α      in ANC's #2, #1, #3, ...

........................................................................
.............................. CYCLE    6 ..............................
........................................................................
   1    -13.7392535 -0.137393E+02  0.177E-02    4.60       0.0  T
   2    -13.7392539 -0.335406E-06  0.933E-03    4.61       3.4  T
   3    -13.7392539 -0.193814E-07  0.392E-03    4.61       8.1  T
   4    -13.7392539 -0.143906E-07  0.549E-04    4.61      57.6  T
   5    -13.7392539 -0.278732E-09  0.293E-04    4.61     107.8  T
     SCC iter.                  ...        0 min,  0.071 sec
     gradient                   ...        0 min,  0.048 sec
 * total energy  :   -13.5426795 Eh     change       -0.4751568E-04 Eh
   gradient norm :     0.0105328 Eh/α   predicted    -0.5739489E-04 (  20.79%)
   displ. norm   :     0.0183568 α      lambda       -0.1781832E-04
   maximum displ.:     0.0139159 α      in ANC's #1, #2, #4, ...

........................................................................
.............................. CYCLE    7 ..............................
........................................................................
   1    -13.7391354 -0.137391E+02  0.139E-02    4.61       0.0  T
   2    -13.7391355 -0.902200E-07  0.762E-03    4.61       4.1  T
   3    -13.7391355 -0.687852E-08  0.171E-03    4.61      18.5  T
   4    -13.7391355 -0.408076E-08  0.395E-04    4.61      80.0  T
   5    -13.7391355 -0.261254E-09  0.219E-04    4.61     144.1  T
     SCC iter.                  ...        0 min,  0.101 sec
     gradient                   ...        0 min,  0.060 sec
 * total energy  :   -13.5426862 Eh     change       -0.6695304E-05 Eh
   gradient norm :     0.0032594 Eh/α   predicted    -0.8910562E-05 (  33.09%)
   displ. norm   :     0.0051549 α      lambda       -0.3605421E-05
   maximum displ.:     0.0045235 α      in ANC's #1, #3, #5, ...

........................................................................
.............................. CYCLE    8 ..............................
........................................................................
   1    -13.7392200 -0.137392E+02  0.373E-03    4.61       0.0  T
   2    -13.7392200 -0.690087E-08  0.206E-03    4.61      15.4  T
   3    -13.7392200 -0.559462E-09  0.575E-04    4.61      55.0  T
   4    -13.7392200 -0.492850E-09  0.106E-04    4.61     299.6  T
     SCC iter.                  ...        0 min,  0.061 sec
     gradient                   ...        0 min,  0.038 sec
 * total energy  :   -13.5426883 Eh     change       -0.2141368E-05 Eh
   gradient norm :     0.0013974 Eh/α   predicted    -0.1802417E-05 ( -15.83%)
   displ. norm   :     0.0081242 α      lambda       -0.1524211E-05
   maximum displ.:     0.0051017 α      in ANC's #1, #3, #2, ...

........................................................................
.............................. CYCLE    9 ..............................
........................................................................
   1    -13.7392957 -0.137393E+02  0.558E-03    4.61       0.0  T
   2    -13.7392957 -0.255481E-07  0.295E-03    4.61      10.7  T
   3    -13.7392957 -0.124877E-08  0.112E-03    4.61      28.2  T
   4    -13.7392957 -0.141914E-08  0.146E-04    4.61     216.6  T
   5    -13.7392957 -0.196483E-10  0.731E-05    4.61     432.5  T
     SCC iter.                  ...        0 min,  0.069 sec
     gradient                   ...        0 min,  0.042 sec
 * total energy  :   -13.5426891 Eh     change       -0.7645178E-06 Eh
   gradient norm :     0.0014764 Eh/α   predicted    -0.7615143E-06 (  -0.39%)
   displ. norm   :     0.0052452 α      lambda       -0.7596732E-06
   maximum displ.:     0.0040119 α      in ANC's #2, #1, #3, ...

........................................................................
.............................. CYCLE   10 ..............................
........................................................................
   1    -13.7392279 -0.137392E+02  0.376E-03    4.61       0.0  T
   2    -13.7392280 -0.170161E-07  0.211E-03    4.61      15.0  T
   3    -13.7392280 -0.100208E-08  0.888E-04    4.61      35.6  T
   4    -13.7392280 -0.678796E-09  0.106E-04    4.61     297.3  T
     SCC iter.                  ...        0 min,  0.095 sec
     gradient                   ...        0 min,  0.054 sec
 * total energy  :   -13.5426895 Eh     change       -0.3902810E-06 Eh
   gradient norm :     0.0012478 Eh/α   predicted    -0.3799015E-06 (  -2.66%)
   displ. norm   :     0.0016594 α      lambda       -0.2108212E-06
   maximum displ.:     0.0011411 α      in ANC's #2, #1, #3, ...

........................................................................
.............................. CYCLE   11 ..............................
........................................................................
   1    -13.7392085 -0.137392E+02  0.140E-03    4.61       0.0  T
   2    -13.7392085 -0.207225E-08  0.725E-04    4.61      43.6  T
   3    -13.7392085 -0.998757E-10  0.295E-04    4.61     107.2  T
     SCC iter.                  ...        0 min,  0.049 sec
     gradient                   ...        0 min,  0.052 sec
 * total energy  :   -13.5426896 Eh     change       -0.1137156E-06 Eh
   gradient norm :     0.0003789 Eh/α   predicted    -0.1056577E-06 (  -7.09%)
   displ. norm   :     0.0014059 α      lambda       -0.6723421E-07
   maximum displ.:     0.0009567 α      in ANC's #1, #3, #2, ...

   *** GEOMETRY OPTIMIZATION CONVERGED AFTER 11 ITERATIONS ***

------------------------------------------------------------------------
 total energy gain   :        -0.0043138 Eh       -2.7070 kcal/mol
 total RMSD          :         0.1602941 a0        0.0848 Å
 total power (kW/mol):        -1.0296354 (step)   -5.4171 (real)
------------------------------------------------------------------------

 ANCopt (total)                0 d,  0 h,  0 min,  2.091 sec
 optimizer setup                ...        0 min,  0.000 sec (  0.003%)
 model hessian                  ...        0 min,  0.010 sec (  0.466%)
 ANC generation                 ...        0 min,  0.001 sec (  0.029%)
 coordinate transformation      ...        0 min,  0.000 sec (  0.002%)
 single point calculation       ...        0 min,  2.024 sec ( 96.804%)
 optimization log               ...        0 min,  0.001 sec (  0.041%)
 hessian update                 ...        0 min,  0.054 sec (  2.581%)
 rational function              ...        0 min,  0.001 sec (  0.049%)

================
 final structure:
================
10
 xtb: 6.5.1 (b24c23e)
N           -0.58422392528325        1.19068852894105       -0.14890840586157
C           -0.01220475650352       -0.01557846562448        0.05301024435643
N            1.26447841143233       -0.07854811886927        0.40067875157570
H            1.80447450996219        0.76624485054984        0.51434818798324
H            1.73611372589460       -0.95569237726647        0.56177267168312
N           -0.68315083373752       -1.12059124515505       -0.23205784944516
H           -1.43437582100343        1.45305819679216        0.31824213347186
H           -0.17851225154175        1.86557848403118       -0.77267844818860
H           -1.62126407775202       -1.06495116728664       -0.59946452300782
H           -0.29129598146763       -2.04020367611230       -0.09498973256723

 Bond Distances (Angstroems)
 ---------------------------
N1-C2=1.3502         N1-H7=1.0049         N1-H8=1.0046         C2-N1=1.3502         C2-N3=1.3247         C2-N6=1.3238         
N3-C2=1.3247         N3-H4=1.0091         N3-H5=1.0088         H4-N3=1.0091         H5-N3=1.0088         N6-C2=1.3238         
N6-H9=1.0090         N6-H10=1.0090        H7-N1=1.0049         H8-N1=1.0046         H9-N6=1.0090         H10-N6=1.0090        
 N  H  Rav=1.0076 sigma=0.0020  Rmin=1.0046  Rmax=1.0091     6
 N  C  Rav=1.3329 sigma=0.0122  Rmin=1.3238  Rmax=1.3502     3

 selected bond angles (degree)
 --------------------
H7-N1-C2=121.48                H8-N1-C2=121.46                H8-N1-H7=117.06                N3-C2-N1=119.34                
N6-C2-N1=119.92                N6-C2-N3=120.35                H4-N3-C2=120.37                H5-N3-C2=122.26                
H5-N3-H4=117.37                H9-N6-C2=120.24                H10-N6-C2=122.32               H10-N6-H9=117.44               

 selected dihedral angles (degree)
 ---------------------------------
N3-C2-N1-H7=232.76            N3-C2-N1-H8= 52.75            N6-C2-N1-H7= 59.86            N6-C2-N1-H8=239.84            
H4-N3-C2-N1=  0.05            H4-N3-C2-N6=172.92            H5-N3-C2-N1=180.05            H5-N3-C2-N6=352.92            
H9-N6-C2-N1=359.97            H9-N6-C2-N3=187.14            H10-N6-C2-N1=180.03           H10-N6-C2-N3=  7.20           
           -------------------------------------------------
          |                Final Singlepoint                |
           -------------------------------------------------

          ...................................................
          :                      SETUP                      :
          :.................................................:
          :  # basis functions                  22          :
          :  # atomic orbitals                  22          :
          :  # shells                           14          :
          :  # electrons                        24          :
          :  max. iterations                   250          :
          :  Hamiltonian                  GFN2-xTB          :
          :  restarted?                      false          :
          :  GBSA solvation                  false          :
          :  PC potential                    false          :
          :  electronic temp.          300.0000000     K    :
          :  accuracy                    1.0000000          :
          :  -> integral cutoff          0.2500000E+02      :
          :  -> integral neglect         0.1000000E-07      :
          :  -> SCF convergence          0.1000000E-05 Eh   :
          :  -> wf. convergence          0.1000000E-03 e    :
          :  Broyden damping             0.4000000          :
          ...................................................

 iter      E             dE          RMSdq      gap      omega  full diag
   1    -13.7392085 -0.137392E+02  0.397E-05    4.61       0.0  T
   2    -13.7392085 -0.115996E-11  0.212E-05    4.61    1489.2  T
   3    -13.7392085  0.142109E-13  0.903E-06    4.61    3500.4  T

   *** convergence criteria satisfied after 3 iterations ***

         #    Occupation            Energy/Eh            Energy/eV
      -------------------------------------------------------------
         1        2.0000           -0.9064728             -24.6664
       ...           ...                  ...                  ...
         6        2.0000           -0.7642785             -20.7971
         7        2.0000           -0.7589878             -20.6531
         8        2.0000           -0.7206034             -19.6086
         9        2.0000           -0.7140025             -19.4290
        10        2.0000           -0.6944847             -18.8979
        11        2.0000           -0.6282263             -17.0949
        12        2.0000           -0.5986344             -16.2897 (HOMO)
        13                         -0.4291496             -11.6778 (LUMO)
        14                         -0.2247569              -6.1159
        15                         -0.1429131              -3.8889
        16                         -0.1320977              -3.5946
        17                         -0.0335859              -0.9139
       ...                                ...                  ...
        22                          0.2866849               7.8011
      -------------------------------------------------------------
                  HL-Gap            0.1694848 Eh            4.6119 eV
             Fermi-level           -0.5138920 Eh          -13.9837 eV

 SCC (total)                   0 d,  0 h,  0 min,  0.146 sec
 SCC setup                      ...        0 min,  0.004 sec (  2.501%)
 Dispersion                     ...        0 min,  0.013 sec (  8.750%)
 classical contributions        ...        0 min,  0.004 sec (  2.833%)
 integral evaluation            ...        0 min,  0.013 sec (  9.053%)
 iterations                     ...        0 min,  0.065 sec ( 44.543%)
 molecular gradient             ...        0 min,  0.047 sec ( 32.216%)
 printout                       ...        0 min,  0.000 sec (  0.092%)

         :::::::::::::::::::::::::::::::::::::::::::::::::::::
         ::                     SUMMARY                     ::
         :::::::::::::::::::::::::::::::::::::::::::::::::::::
         :: total energy             -13.542689586564 Eh    ::
         :: gradient norm              0.000379926440 Eh/a0 ::
         :: HOMO-LUMO gap              4.611916037395 eV    ::
         ::.................................................::
         :: SCC energy               -13.739208473533 Eh    ::
         :: -> isotropic ES            0.112065808331 Eh    ::
         :: -> anisotropic ES         -0.009904554506 Eh    ::
         :: -> anisotropic XC          0.010520638652 Eh    ::
         :: -> dispersion             -0.003411350174 Eh    ::
         :: repulsion energy           0.196467879353 Eh    ::
         :: add. restraining           0.000048759999 Eh    ::
         :: total charge               1.000000000000 e     ::
         :::::::::::::::::::::::::::::::::::::::::::::::::::::

           -------------------------------------------------
          |                Property Printout                |
           -------------------------------------------------

    * Orbital Energies and Occupations

         #    Occupation            Energy/Eh            Energy/eV
      -------------------------------------------------------------
         1        2.0000           -0.9064728             -24.6664
         2        2.0000           -0.8567659             -23.3138
         3        2.0000           -0.8491232             -23.1058
         4        2.0000           -0.7868496             -21.4113
         5        2.0000           -0.7684900             -20.9117
         6        2.0000           -0.7642785             -20.7971
         7        2.0000           -0.7589878             -20.6531
         8        2.0000           -0.7206034             -19.6086
         9        2.0000           -0.7140025             -19.4290
        10        2.0000           -0.6944847             -18.8979
        11        2.0000           -0.6282263             -17.0949
        12        2.0000           -0.5986344             -16.2897 (HOMO)
        13                         -0.4291496             -11.6778 (LUMO)
        14                         -0.2247569              -6.1159
        15                         -0.1429131              -3.8889
        16                         -0.1320977              -3.5946
        17                         -0.0335859              -0.9139
        18                          0.0053294               0.1450
        19                          0.0710758               1.9341
        20                          0.0819079               2.2288
        21                          0.2792215               7.5980
        22                          0.2866849               7.8011
      -------------------------------------------------------------
                  HL-Gap            0.1694848 Eh            4.6119 eV
             Fermi-level           -0.5138920 Eh          -13.9837 eV

     #   Z          covCN         q      C6AA      α(0)
     1   7 N        2.650    -0.272    27.047     7.724
     2   6 C        2.730     0.261    22.608     7.784
     3   7 N        2.652    -0.208    25.521     7.503
     4   1 H        0.860     0.244     0.905     1.490
     5   1 H        0.860     0.237     0.934     1.514
     6   7 N        2.651    -0.206    25.481     7.497
     7   1 H        0.860     0.230     0.967     1.540
     8   1 H        0.860     0.230     0.963     1.537
     9   1 H        0.860     0.245     0.902     1.487
    10   1 H        0.860     0.238     0.932     1.512

 Mol. C6AA /au·bohr⁶  :        666.378422
 Mol. C8AA /au·bohr⁸  :      13789.635675
 Mol. α(0) /au        :         39.589038


Wiberg/Mayer (AO) data.
largest (>0.10) Wiberg bond orders for each atom

 ---------------------------------------------------------------------------
     #   Z sym  total        # sym  WBO       # sym  WBO       # sym  WBO
 ---------------------------------------------------------------------------
     1   7 N    3.239 --     2 C    1.218     7 H    0.918     8 H    0.916
     2   6 C    3.973 --     6 N    1.372     3 N    1.370     1 N    1.218
     3   7 N    3.465 --     2 C    1.370     5 H    0.923     4 H    0.921
                             6 N    0.137
     4   1 H    0.940 --     3 N    0.921
     5   1 H    0.944 --     3 N    0.923
     6   7 N    3.464 --     2 C    1.372    10 H    0.923     9 H    0.921
                             3 N    0.137
     7   1 H    0.947 --     1 N    0.918
     8   1 H    0.947 --     1 N    0.916
     9   1 H    0.940 --     6 N    0.921
    10   1 H    0.943 --     6 N    0.923
 ---------------------------------------------------------------------------

Topologies differ in total number of bonds
Writing topology from bond orders to xtbtopo.mol

molecular dipole:
                 x           y           z       tot (Debye)
 q only:        0.094      -0.197       0.006
   full:        0.097      -0.217       0.027       0.609
molecular quadrupole (traceless):
                xx          xy          yy          xz          yz          zz
 q only:        2.965       0.034       3.683       2.511      -0.286      -6.648
  q+dip:        3.522      -0.176       4.579       2.613      -0.694      -8.101
   full:        3.356      -0.193       4.355       2.371      -0.725      -7.711

           -------------------------------------------------
          |                Geometry Summary                 |
           -------------------------------------------------

      molecular mass/u    :       60.0784900
   center of mass at/Å    :       -0.0028612      -0.0046814       0.0139726
  moments of inertia/u·Å² :        0.4959323E+02   0.5134883E+02   0.9884229E+02
rotational constants/cm⁻¹ :        0.3399180E+00   0.3282963E+00   0.1705508E+00

 * 9 selected distances

     #   Z          #   Z                                           value/Å
     1   7 N        2   6 C                                       1.3502065 (max)
     2   6 C        3   7 N                                       1.3246731
     3   7 N        4   1 H                                       1.0090549
     3   7 N        5   1 H                                       1.0088475
     2   6 C        6   7 N                                       1.3238150
     1   7 N        7   1 H                                       1.0049009
     1   7 N        8   1 H                                       1.0045734 (min)
     6   7 N        9   1 H                                       1.0090293
     6   7 N       10   1 H                                       1.0089723

 * 2 distinct bonds (by element types)

   Z      Z             #   av. dist./Å        max./Å        min./Å
   1 H    7 N           6     1.0075631     1.0090549     1.0045734
   6 C    7 N           3     1.3328982     1.3502065     1.3238150


optimized geometry written to: xtbopt.xyz


           -------------------------------------------------
          | TOTAL ENERGY              -13.542689586564 Eh   |
          | GRADIENT NORM               0.000379926440 Eh/α |
          | HOMO-LUMO GAP               4.611916037395 eV   |
           -------------------------------------------------

------------------------------------------------------------------------
 * finished run on 2022/11/03 at 12:40:02.002     
------------------------------------------------------------------------
 total:
 * wall-time:     0 d,  0 h,  0 min,  2.548 sec
 *  cpu-time:     0 d,  0 h,  0 min, 20.174 sec
 * ratio c/w:     7.918 speedup
 SCF:
 * wall-time:     0 d,  0 h,  0 min,  0.249 sec
 *  cpu-time:     0 d,  0 h,  0 min,  1.983 sec
 * ratio c/w:     7.959 speedup
 ANC optimizer:
 * wall-time:     0 d,  0 h,  0 min,  2.237 sec
 *  cpu-time:     0 d,  0 h,  0 min, 17.701 sec
 * ratio c/w:     7.913 speedup

