      -----------------------------------------------------------      
     |                   =====================                   |     
     |                           x T B                           |     
     |                   =====================                   |     
     |                         S. Grimme                         |     
     |          Mulliken Center for Theoretical Chemistry        |     
     |                    University of Bonn                     |     
      -----------------------------------------------------------      

   * xtb version 6.5.1 (b24c23e) compiled by 'conda@728c89f4b128' on 2022-07-12

   xtb is free software: you can redistribute it and/or modify it under
   the terms of the GNU Lesser General Public License as published by
   the Free Software Foundation, either version 3 of the License, or
   (at your option) any later version.
   
   xtb is distributed in the hope that it will be useful,
   but WITHOUT ANY WARRANTY; without even the implied warranty of
   MERCHANTABILITY or FITNESS FOR A PARTICULAR PURPOSE.  See the
   GNU Lesser General Public License for more details.
   
   Cite this work as:
   * C. Bannwarth, E. Caldeweyher, S. Ehlert, A. Hansen, P. Pracht,
     J. Seibert, S. Spicher, S. Grimme, WIREs Comput. Mol. Sci., 2020, 11,
     e01493. DOI: 10.1002/wcms.1493
   
   for GFN2-xTB:
   * C. Bannwarth, S. Ehlert and S. Grimme., J. Chem. Theory Comput., 2019,
     15, 1652-1671. DOI: 10.1021/acs.jctc.8b01176
   for GFN1-xTB:
   * S. Grimme, C. Bannwarth, P. Shushkov, J. Chem. Theory Comput., 2017,
     13, 1989-2009. DOI: 10.1021/acs.jctc.7b00118
   for GFN0-xTB:
   * P. Pracht, E. Caldeweyher, S. Ehlert, S. Grimme, ChemRxiv, 2019, preprint.
     DOI: 10.26434/chemrxiv.8326202.v1
   for GFN-FF:
   * S. Spicher and S. Grimme, Angew. Chem. Int. Ed., 2020, 59, 15665-15673.
     DOI: 10.1002/anie.202004239
   
   for ALPB and GBSA implicit solvation:
   * S. Ehlert, M. Stahn, S. Spicher, S. Grimme, J. Chem. Theory Comput.,
     2021, 17, 4250-4261. DOI: 10.1021/acs.jctc.1c00471
   
   for DFT-D4:
   * E. Caldeweyher, C. Bannwarth and S. Grimme, J. Chem. Phys., 2017,
     147, 034112. DOI: 10.1063/1.4993215
   * E. Caldeweyher, S. Ehlert, A. Hansen, H. Neugebauer, S. Spicher,
     C. Bannwarth and S. Grimme, J. Chem. Phys., 2019, 150, 154122.
     DOI: 10.1063/1.5090222
   * E. Caldeweyher, J.-M. Mewes, S. Ehlert and S. Grimme, Phys. Chem. Chem. Phys.
     2020, 22, 8499-8512. DOI: 10.1039/D0CP00502A
   
   for sTDA-xTB:
   * S. Grimme and C. Bannwarth, J. Chem. Phys., 2016, 145, 054103.
     DOI: 10.1063/1.4959605
   
   in the mass-spec context:
   * V. Asgeirsson, C. Bauer and S. Grimme, Chem. Sci., 2017, 8, 4879.
     DOI: 10.1039/c7sc00601b
   * J. Koopman and S. Grimme, ACS Omega 2019, 4, 12, 15120-15133.
     DOI: 10.1021/acsomega.9b02011
   
   for metadynamics refer to:
   * S. Grimme, J. Chem. Theory Comput., 2019, 155, 2847-2862
     DOI: 10.1021/acs.jctc.9b00143
   
   for SPH calculations refer to:
   * S. Spicher and S. Grimme, J. Chem. Theory Comput., 2021, 17, 1701-1714
     DOI: 10.1021/acs.jctc.0c01306
   
   with help from (in alphabetical order)
   P. Atkinson, C. Bannwarth, F. Bohle, G. Brandenburg, E. Caldeweyher
   M. Checinski, S. Dohm, S. Ehlert, S. Ehrlich, I. Gerasimov, C. Hölzer
   A. Katbashev, J. Koopman, C. Lavigne, S. Lehtola, F. März, M. Müller,
   F. Musil, H. Neugebauer, J. Pisarek, C. Plett, P. Pracht, F. Pultar,
   J. Seibert, P. Shushkov, S. Spicher, M. Stahn, M. Steiner, T. Strunk,
   J. Stückrath, T. Rose, and J. Unsleber
   
 * started run on 2022/11/03 at 12:40:08.891     

           -------------------------------------------------
          |                Calculation Setup                |
           -------------------------------------------------

          program call               : /home/chase/psi4conda/envs/xtbenv/bin/xtb --gfn 2 --chrg 1 --uhf 0 guan-opt-1-2-120_preQMOPTprefit_xyzformat.xyz --opt --input xtb-opt-1-2-120_constr.txt
          coordinate file            : guan-opt-1-2-120_preQMOPTprefit_xyzformat.xyz
          omp threads                :                     8

   ID    Z sym.   atoms
    1    7 N      1, 3, 6
    2    6 C      2
    3    1 H      4, 5, 7-10
constraining angle 7 1 2 6 to  119.9819656°, actual value:  119.9819656°
constraining angle 8 1 2 6 to  299.9819856°, actual value:  -60.0180144°
constraining angle 9 6 2 1 to  359.9907700°, actual value:   -0.0092300°
constraining angle 10 6 2 1 to  180.0034345°, actual value: -179.9965655°
constraining angle 4 3 2 1 to  359.9925454°, actual value:   -0.0074546°
constraining angle 5 3 2 1 to  179.9967859°, actual value:  179.9967859°

           -------------------------------------------------
          |                 G F N 2 - x T B                 |
           -------------------------------------------------

        Reference                      10.1021/acs.jctc.8b01176
      * Hamiltonian:
        H0-scaling (s, p, d)           1.850000    2.230000    2.230000
        zeta-weighting                 0.500000
      * Dispersion:
        s8                             2.700000
        a1                             0.520000
        a2                             5.000000
        s9                             5.000000
      * Repulsion:
        kExp                           1.500000    1.000000
        rExp                           1.000000
      * Coulomb:
        alpha                          2.000000
        third order                    shell-resolved
        anisotropic                    true
        a3                             3.000000
        a5                             4.000000
        cn-shift                       1.200000
        cn-exp                         4.000000
        max-rad                        5.000000

q/qsh data taken from xtbrestart
CAMM data taken from xtbrestart

          ...................................................
          :                      SETUP                      :
          :.................................................:
          :  # basis functions                  22          :
          :  # atomic orbitals                  22          :
          :  # shells                           14          :
          :  # electrons                        24          :
          :  max. iterations                   250          :
          :  Hamiltonian                  GFN2-xTB          :
          :  restarted?                       true          :
          :  GBSA solvation                  false          :
          :  PC potential                    false          :
          :  electronic temp.          300.0000000     K    :
          :  accuracy                    1.0000000          :
          :  -> integral cutoff          0.2500000E+02      :
          :  -> integral neglect         0.1000000E-07      :
          :  -> SCF convergence          0.1000000E-05 Eh   :
          :  -> wf. convergence          0.1000000E-03 e    :
          :  Broyden damping             0.4000000          :
          ...................................................

 iter      E             dE          RMSdq      gap      omega  full diag
   1    -13.7230029 -0.137230E+02  0.792E-01    3.75       0.0  T
   2    -13.7258913 -0.288846E-02  0.324E-01    4.26       1.0  T
   3    -13.7259245 -0.331692E-04  0.178E-01    4.24       1.0  T
   4    -13.7259284 -0.385158E-05  0.217E-02    4.26       1.5  T
   5    -13.7259295 -0.110492E-05  0.112E-02    4.26       2.8  T
   6    -13.7259296 -0.134056E-06  0.192E-03    4.26      16.5  T
   7    -13.7259296 -0.102929E-07  0.635E-04    4.26      49.8  T
   8    -13.7259296 -0.370502E-09  0.241E-04    4.26     130.9  T

   *** convergence criteria satisfied after 8 iterations ***

         #    Occupation            Energy/Eh            Energy/eV
      -------------------------------------------------------------
         1        2.0000           -0.9017869             -24.5389
       ...           ...                  ...                  ...
         6        2.0000           -0.7608811             -20.7046
         7        2.0000           -0.7577636             -20.6198
         8        2.0000           -0.7199022             -19.5895
         9        2.0000           -0.7123417             -19.3838
        10        2.0000           -0.6889386             -18.7470
        11        2.0000           -0.6273324             -17.0706
        12        2.0000           -0.5944602             -16.1761 (HOMO)
        13                         -0.4378672             -11.9150 (LUMO)
        14                         -0.2307939              -6.2802
        15                         -0.1492104              -4.0602
        16                         -0.1372953              -3.7360
        17                         -0.0396193              -1.0781
       ...                                ...                  ...
        22                          0.2740460               7.4572
      -------------------------------------------------------------
                  HL-Gap            0.1565930 Eh            4.2611 eV
             Fermi-level           -0.5161637 Eh          -14.0455 eV

 SCC (total)                   0 d,  0 h,  0 min,  0.283 sec
 SCC setup                      ...        0 min,  0.005 sec (  1.900%)
 Dispersion                     ...        0 min,  0.012 sec (  4.299%)
 classical contributions        ...        0 min,  0.007 sec (  2.566%)
 integral evaluation            ...        0 min,  0.023 sec (  7.988%)
 iterations                     ...        0 min,  0.173 sec ( 61.197%)
 molecular gradient             ...        0 min,  0.062 sec ( 21.998%)
 printout                       ...        0 min,  0.000 sec (  0.046%)

         :::::::::::::::::::::::::::::::::::::::::::::::::::::
         ::                     SUMMARY                     ::
         :::::::::::::::::::::::::::::::::::::::::::::::::::::
         :: total energy             -13.538373804193 Eh    ::
         :: gradient norm              0.041265813398 Eh/a0 ::
         :: HOMO-LUMO gap              4.261113482407 eV    ::
         ::.................................................::
         :: SCC energy               -13.725929602947 Eh    ::
         :: -> isotropic ES            0.111909705318 Eh    ::
         :: -> anisotropic ES         -0.009839996495 Eh    ::
         :: -> anisotropic XC          0.010861410617 Eh    ::
         :: -> dispersion             -0.003403777579 Eh    ::
         :: repulsion energy           0.187553388343 Eh    ::
         :: add. restraining           0.000000000000 Eh    ::
         :: total charge               1.000000000000 e     ::
         :::::::::::::::::::::::::::::::::::::::::::::::::::::

      ----------------------------------------------------------- 
     |                   =====================                   |
     |                        A N C O P T                        |
     |                   =====================                   |
     |               Approximate Normal Coordinate               |
     |                Rational Function Optimizer                |
      ----------------------------------------------------------- 

          ...................................................
          :                      SETUP                      :
          :.................................................:
          :   optimization level            normal          :
          :   max. optcycles                   200          :
          :   ANC micro-cycles                  20          :
          :   degrees of freedom                24          :
          :.................................................:
          :   RF solver                   davidson          :
          :   write xtbopt.log                true          :
          :   linear?                        false          :
          :   energy convergence         0.5000000E-05 Eh   :
          :   grad. convergence          0.1000000E-02 Eh/α :
          :   maximium RF displ.         1.0000000          :
          :   Hlow (freq-cutoff)         0.1000000E-01      :
          :   Hmax (freq-cutoff)         5.0000000          :
          :   S6 in model hess.         20.0000000          :
          ...................................................

generating ANC from model Hessian ...
Using Lindh-Hessian (1995)
 Shifting diagonal of input Hessian by    0.0000000000000000     
 Lowest  eigenvalues of input Hessian
    0.000000    0.000000    0.000000    0.000000    0.000000    0.000000
    0.039306    0.040264    0.049040    0.137633    0.152193    0.180696
    0.181963    0.340302    0.357001    0.413323    0.757921    0.810476
 Highest eigenvalues
    2.238194    2.323603    6.833007   10.069492   10.680331   26.573900


........................................................................
.............................. CYCLE    1 ..............................
........................................................................
   1    -13.7259296 -0.137259E+02  0.575E-05    4.26       0.0  T
   2    -13.7259296 -0.214406E-11  0.320E-05    4.26     988.2  T
   3    -13.7259296 -0.145661E-12  0.782E-06    4.26    4042.2  T
     SCC iter.                  ...        0 min,  0.048 sec
     gradient                   ...        0 min,  0.045 sec
 * total energy  :   -13.5383738 Eh     change       -0.2747509E-09 Eh
   gradient norm :     0.0412720 Eh/α   predicted     0.0000000E+00 (-100.00%)
   displ. norm   :     0.2929308 α      lambda       -0.5314454E-02
   maximum displ.:     0.2622069 α      in ANC's #1, #2, #4, ...

........................................................................
.............................. CYCLE    2 ..............................
........................................................................
   1    -13.7346265 -0.137346E+02  0.224E-01    4.49       0.0  T
   2    -13.7346338 -0.730789E-05  0.127E-01    4.50       1.0  T
   3    -13.7346351 -0.136258E-05  0.162E-02    4.50       1.9  T
   4    -13.7346363 -0.115914E-05  0.570E-03    4.50       5.5  T
   5    -13.7346363 -0.818882E-08  0.193E-03    4.50      16.4  T
   6    -13.7346363 -0.729048E-08  0.405E-04    4.50      78.1  T
   7    -13.7346363 -0.297169E-09  0.680E-05    4.50     464.9  T
     SCC iter.                  ...        0 min,  0.153 sec
     gradient                   ...        0 min,  0.053 sec
 * total energy  :   -13.5419197 Eh     change       -0.3545894E-02 Eh
   gradient norm :     0.0486778 Eh/α   predicted    -0.2885254E-02 ( -18.63%)
   displ. norm   :     0.2223503 α      lambda       -0.2122335E-02
   maximum displ.:     0.1805412 α      in ANC's #1, #2, #4, ...

........................................................................
.............................. CYCLE    3 ..............................
........................................................................
   1    -13.7382049 -0.137382E+02  0.161E-01    4.60       0.0  T
   2    -13.7382106 -0.569438E-05  0.893E-02    4.62       1.0  T
   3    -13.7382114 -0.745181E-06  0.140E-02    4.62       2.3  T
   4    -13.7382120 -0.596935E-06  0.398E-03    4.62       8.0  T
   5    -13.7382120 -0.130662E-07  0.200E-03    4.62      15.8  T
   6    -13.7382120 -0.286017E-08  0.310E-04    4.62     102.2  T
   7    -13.7382120 -0.185132E-09  0.107E-04    4.62     294.4  T
     SCC iter.                  ...        0 min,  0.160 sec
     gradient                   ...        0 min,  0.044 sec
 * total energy  :   -13.5409174 Eh     change        0.1002284E-02 Eh
   gradient norm :     0.3005018 Eh/α   predicted    -0.1113634E-02 (-211.11%)
   displ. norm   :     0.0460648 α      lambda       -0.3836570E-02
   maximum displ.:     0.0387096 α      in ANC's #1, #4, #21, ...

........................................................................
.............................. CYCLE    4 ..............................
........................................................................
   1    -13.7383650 -0.137384E+02  0.492E-02    4.62       0.0  T
   2    -13.7383671 -0.215079E-05  0.264E-02    4.63       1.2  T
   3    -13.7383673 -0.117676E-06  0.769E-03    4.63       4.1  T
   4    -13.7383673 -0.148944E-07  0.146E-03    4.63      21.6  T
   5    -13.7383673 -0.612333E-09  0.574E-04    4.63      55.1  T
   6    -13.7383673 -0.221670E-09  0.746E-05    4.63     424.2  T
     SCC iter.                  ...        0 min,  0.127 sec
     gradient                   ...        0 min,  0.060 sec
 * total energy  :   -13.5425439 Eh     change       -0.1626482E-02 Eh
   gradient norm :     0.0463013 Eh/α   predicted    -0.1922357E-02 (  18.19%)
   displ. norm   :     0.0826440 α      lambda       -0.3798368E-03
   maximum displ.:     0.0747284 α      in ANC's #1, #2, #4, ...

........................................................................
.............................. CYCLE    5 ..............................
........................................................................
   1    -13.7393196 -0.137393E+02  0.654E-02    4.61       0.0  T
   2    -13.7393209 -0.132836E-05  0.361E-02    4.60       1.0  T
   3    -13.7393210 -0.133948E-06  0.776E-03    4.60       4.1  T
   4    -13.7393212 -0.118727E-06  0.179E-03    4.60      17.7  T
   5    -13.7393212 -0.733458E-10  0.612E-04    4.60      51.7  T
   6    -13.7393212 -0.934200E-09  0.107E-04    4.60     295.0  T
     SCC iter.                  ...        0 min,  0.123 sec
     gradient                   ...        0 min,  0.046 sec
 * total energy  :   -13.5426319 Eh     change       -0.8801979E-04 Eh
   gradient norm :     0.0259828 Eh/α   predicted    -0.1912154E-03 ( 117.24%)
   displ. norm   :     0.0246100 α      lambda       -0.1147899E-03
   maximum displ.:     0.0164698 α      in ANC's #2, #1, #3, ...

........................................................................
.............................. CYCLE    6 ..............................
........................................................................
   1    -13.7392528 -0.137393E+02  0.189E-02    4.60       0.0  T
   2    -13.7392532 -0.330293E-06  0.964E-03    4.61       3.3  T
   3    -13.7392532 -0.172106E-07  0.392E-03    4.61       8.1  T
   4    -13.7392532 -0.162616E-07  0.560E-04    4.61      56.5  T
   5    -13.7392532 -0.270273E-09  0.294E-04    4.61     107.7  T
     SCC iter.                  ...        0 min,  0.069 sec
     gradient                   ...        0 min,  0.052 sec
 * total energy  :   -13.5426795 Eh     change       -0.4762085E-04 Eh
   gradient norm :     0.0104949 Eh/α   predicted    -0.5742949E-04 (  20.60%)
   displ. norm   :     0.0183248 α      lambda       -0.1773052E-04
   maximum displ.:     0.0139129 α      in ANC's #1, #2, #4, ...

........................................................................
.............................. CYCLE    7 ..............................
........................................................................
   1    -13.7391370 -0.137391E+02  0.146E-02    4.61       0.0  T
   2    -13.7391371 -0.879284E-07  0.794E-03    4.61       4.0  T
   3    -13.7391371 -0.666656E-08  0.173E-03    4.61      18.3  T
   4    -13.7391371 -0.421548E-08  0.391E-04    4.61      80.8  T
   5    -13.7391371 -0.266335E-09  0.220E-04    4.61     144.0  T
     SCC iter.                  ...        0 min,  0.109 sec
     gradient                   ...        0 min,  0.063 sec
 * total energy  :   -13.5426862 Eh     change       -0.6659961E-05 Eh
   gradient norm :     0.0032707 Eh/α   predicted    -0.8868711E-05 (  33.16%)
   displ. norm   :     0.0051488 α      lambda       -0.3601049E-05
   maximum displ.:     0.0045276 α      in ANC's #1, #3, #5, ...

........................................................................
.............................. CYCLE    8 ..............................
........................................................................
   1    -13.7392201 -0.137392E+02  0.369E-03    4.61       0.0  T
   2    -13.7392201 -0.673480E-08  0.210E-03    4.61      15.0  T
   3    -13.7392201 -0.514177E-09  0.527E-04    4.61      60.0  T
   4    -13.7392201 -0.522320E-09  0.102E-04    4.61     308.6  T
     SCC iter.                  ...        0 min,  0.063 sec
     gradient                   ...        0 min,  0.044 sec
 * total energy  :   -13.5426883 Eh     change       -0.2142075E-05 Eh
   gradient norm :     0.0013938 Eh/α   predicted    -0.1802053E-05 ( -15.87%)
   displ. norm   :     0.0081566 α      lambda       -0.1520450E-05
   maximum displ.:     0.0051560 α      in ANC's #1, #3, #2, ...

........................................................................
.............................. CYCLE    9 ..............................
........................................................................
   1    -13.7392950 -0.137393E+02  0.541E-03    4.61       0.0  T
   2    -13.7392950 -0.247937E-07  0.297E-03    4.61      10.6  T
   3    -13.7392950 -0.117379E-08  0.108E-03    4.61      29.3  T
   4    -13.7392950 -0.144576E-08  0.144E-04    4.61     220.2  T
   5    -13.7392950 -0.210552E-10  0.727E-05    4.61     434.7  T
     SCC iter.                  ...        0 min,  0.094 sec
     gradient                   ...        0 min,  0.048 sec
 * total energy  :   -13.5426891 Eh     change       -0.7621534E-06 Eh
   gradient norm :     0.0014750 Eh/α   predicted    -0.7610959E-06 (  -0.14%)
   displ. norm   :     0.0052247 α      lambda       -0.7546453E-06
   maximum displ.:     0.0040168 α      in ANC's #2, #1, #3, ...

........................................................................
.............................. CYCLE   10 ..............................
........................................................................
   1    -13.7392278 -0.137392E+02  0.399E-03    4.61       0.0  T
   2    -13.7392278 -0.164991E-07  0.216E-03    4.61      14.7  T
   3    -13.7392278 -0.857273E-09  0.891E-04    4.61      35.5  T
   4    -13.7392278 -0.784857E-09  0.105E-04    4.61     299.8  T
     SCC iter.                  ...        0 min,  0.056 sec
     gradient                   ...        0 min,  0.044 sec
 * total energy  :   -13.5426895 Eh     change       -0.3859710E-06 Eh
   gradient norm :     0.0012485 Eh/α   predicted    -0.3780810E-06 (  -2.04%)
   displ. norm   :     0.0016770 α      lambda       -0.2078746E-06
   maximum displ.:     0.0011694 α      in ANC's #2, #1, #3, ...

........................................................................
.............................. CYCLE   11 ..............................
........................................................................
   1    -13.7392086 -0.137392E+02  0.138E-03    4.61       0.0  T
   2    -13.7392086 -0.198541E-08  0.727E-04    4.61      43.5  T
   3    -13.7392086 -0.937010E-10  0.287E-04    4.61     110.1  T
     SCC iter.                  ...        0 min,  0.066 sec
     gradient                   ...        0 min,  0.056 sec
 * total energy  :   -13.5426896 Eh     change       -0.1134147E-06 Eh
   gradient norm :     0.0003780 Eh/α   predicted    -0.1054612E-06 (  -7.01%)
   displ. norm   :     0.0014019 α      lambda       -0.6130495E-07
   maximum displ.:     0.0009622 α      in ANC's #1, #3, #2, ...

   *** GEOMETRY OPTIMIZATION CONVERGED AFTER 11 ITERATIONS ***

------------------------------------------------------------------------
 total energy gain   :        -0.0043158 Eh       -2.7082 kcal/mol
 total RMSD          :         0.1602422 a0        0.0848 Å
 total power (kW/mol):        -1.0301020 (step)   -5.2742 (real)
------------------------------------------------------------------------

 ANCopt (total)                0 d,  0 h,  0 min,  2.148 sec
 optimizer setup                ...        0 min,  0.000 sec (  0.003%)
 model hessian                  ...        0 min,  0.003 sec (  0.154%)
 ANC generation                 ...        0 min,  0.000 sec (  0.011%)
 coordinate transformation      ...        0 min,  0.000 sec (  0.002%)
 single point calculation       ...        0 min,  2.083 sec ( 96.938%)
 optimization log               ...        0 min,  0.001 sec (  0.042%)
 hessian update                 ...        0 min,  0.060 sec (  2.779%)
 rational function              ...        0 min,  0.001 sec (  0.048%)

================
 final structure:
================
10
 xtb: 6.5.1 (b24c23e)
N           -0.56904988631221        1.19238758959898       -0.18875189960693
C            0.02598308785475       -0.01154121751911       -0.04893566566440
N            1.21859712901820       -0.08365499136656        0.52310283883370
H            1.67864838944103        0.75256227829842        0.85064766575802
H            1.70263944165292       -0.95956649117366        0.65059761912365
N           -0.63856940720565       -1.11571457897786       -0.35168395824016
H           -0.68976535580484        1.81157023794394        0.59304606550254
H           -0.91048550723474        1.50866258827456       -1.07937952408006
H           -1.58860028815445       -1.06114421785487       -0.68724777758261
H           -0.22935761325501       -2.03355320722383       -0.26144336404375

 Bond Distances (Angstroems)
 ---------------------------
N1-C2=1.3502         N1-H7=1.0046         N1-H8=1.0049         C2-N1=1.3502         C2-N3=1.3247         C2-N6=1.3238         
N3-C2=1.3247         N3-H4=1.0091         N3-H5=1.0088         H4-N3=1.0091         H5-N3=1.0088         N6-C2=1.3238         
N6-H9=1.0090         N6-H10=1.0090        H7-N1=1.0046         H8-N1=1.0049         H9-N6=1.0090         H10-N6=1.0090        
 N  H  Rav=1.0076 sigma=0.0020  Rmin=1.0046  Rmax=1.0091     6
 N  C  Rav=1.3329 sigma=0.0122  Rmin=1.3238  Rmax=1.3502     3

 selected bond angles (degree)
 --------------------
H7-N1-C2=121.46                H8-N1-C2=121.48                H8-N1-H7=117.06                N3-C2-N1=119.34                
N6-C2-N1=119.92                N6-C2-N3=120.35                H4-N3-C2=120.37                H5-N3-C2=122.26                
H5-N3-H4=117.37                H9-N6-C2=120.24                H10-N6-C2=122.32               H10-N6-H9=117.44               

 selected dihedral angles (degree)
 ---------------------------------
N3-C2-N1-H7=307.25            N3-C2-N1-H8=127.24            N6-C2-N1-H7=120.16            N6-C2-N1-H8=300.14            
H4-N3-C2-N1=359.95            H4-N3-C2-N6=187.08            H5-N3-C2-N1=179.95            H5-N3-C2-N6=  7.08            
H9-N6-C2-N1=  0.03            H9-N6-C2-N3=172.86            H10-N6-C2-N1=179.97           H10-N6-C2-N3=352.80           
           -------------------------------------------------
          |                Final Singlepoint                |
           -------------------------------------------------

          ...................................................
          :                      SETUP                      :
          :.................................................:
          :  # basis functions                  22          :
          :  # atomic orbitals                  22          :
          :  # shells                           14          :
          :  # electrons                        24          :
          :  max. iterations                   250          :
          :  Hamiltonian                  GFN2-xTB          :
          :  restarted?                      false          :
          :  GBSA solvation                  false          :
          :  PC potential                    false          :
          :  electronic temp.          300.0000000     K    :
          :  accuracy                    1.0000000          :
          :  -> integral cutoff          0.2500000E+02      :
          :  -> integral neglect         0.1000000E-07      :
          :  -> SCF convergence          0.1000000E-05 Eh   :
          :  -> wf. convergence          0.1000000E-03 e    :
          :  Broyden damping             0.4000000          :
          ...................................................

 iter      E             dE          RMSdq      gap      omega  full diag
   1    -13.7392086 -0.137392E+02  0.375E-05    4.61       0.0  T
   2    -13.7392086 -0.109424E-11  0.203E-05    4.61    1560.1  T
   3    -13.7392086 -0.888178E-14  0.867E-06    4.61    3646.9  T

   *** convergence criteria satisfied after 3 iterations ***

         #    Occupation            Energy/Eh            Energy/eV
      -------------------------------------------------------------
         1        2.0000           -0.9064729             -24.6664
       ...           ...                  ...                  ...
         6        2.0000           -0.7642784             -20.7971
         7        2.0000           -0.7589880             -20.6531
         8        2.0000           -0.7206034             -19.6086
         9        2.0000           -0.7140024             -19.4290
        10        2.0000           -0.6944846             -18.8979
        11        2.0000           -0.6282264             -17.0949
        12        2.0000           -0.5986343             -16.2897 (HOMO)
        13                         -0.4291495             -11.6778 (LUMO)
        14                         -0.2247567              -6.1159
        15                         -0.1429133              -3.8889
        16                         -0.1320974              -3.5946
        17                         -0.0335866              -0.9139
       ...                                ...                  ...
        22                          0.2866854               7.8011
      -------------------------------------------------------------
                  HL-Gap            0.1694848 Eh            4.6119 eV
             Fermi-level           -0.5138919 Eh          -13.9837 eV

 SCC (total)                   0 d,  0 h,  0 min,  0.149 sec
 SCC setup                      ...        0 min,  0.004 sec (  3.002%)
 Dispersion                     ...        0 min,  0.015 sec (  9.831%)
 classical contributions        ...        0 min,  0.005 sec (  3.521%)
 integral evaluation            ...        0 min,  0.017 sec ( 11.510%)
 iterations                     ...        0 min,  0.053 sec ( 35.215%)
 molecular gradient             ...        0 min,  0.055 sec ( 36.836%)
 printout                       ...        0 min,  0.000 sec (  0.077%)

         :::::::::::::::::::::::::::::::::::::::::::::::::::::
         ::                     SUMMARY                     ::
         :::::::::::::::::::::::::::::::::::::::::::::::::::::
         :: total energy             -13.542689600782 Eh    ::
         :: gradient norm              0.000379073812 Eh/a0 ::
         :: HOMO-LUMO gap              4.611916299752 eV    ::
         ::.................................................::
         :: SCC energy               -13.739208604920 Eh    ::
         :: -> isotropic ES            0.112065812654 Eh    ::
         :: -> anisotropic ES         -0.009904550926 Eh    ::
         :: -> anisotropic XC          0.010520638265 Eh    ::
         :: -> dispersion             -0.003411350316 Eh    ::
         :: repulsion energy           0.196468009275 Eh    ::
         :: add. restraining           0.000048747245 Eh    ::
         :: total charge               1.000000000000 e     ::
         :::::::::::::::::::::::::::::::::::::::::::::::::::::

           -------------------------------------------------
          |                Property Printout                |
           -------------------------------------------------

    * Orbital Energies and Occupations

         #    Occupation            Energy/Eh            Energy/eV
      -------------------------------------------------------------
         1        2.0000           -0.9064729             -24.6664
         2        2.0000           -0.8567659             -23.3138
         3        2.0000           -0.8491232             -23.1058
         4        2.0000           -0.7868496             -21.4113
         5        2.0000           -0.7684900             -20.9117
         6        2.0000           -0.7642784             -20.7971
         7        2.0000           -0.7589880             -20.6531
         8        2.0000           -0.7206034             -19.6086
         9        2.0000           -0.7140024             -19.4290
        10        2.0000           -0.6944846             -18.8979
        11        2.0000           -0.6282264             -17.0949
        12        2.0000           -0.5986343             -16.2897 (HOMO)
        13                         -0.4291495             -11.6778 (LUMO)
        14                         -0.2247567              -6.1159
        15                         -0.1429133              -3.8889
        16                         -0.1320974              -3.5946
        17                         -0.0335866              -0.9139
        18                          0.0053297               0.1450
        19                          0.0710768               1.9341
        20                          0.0819079               2.2288
        21                          0.2792221               7.5980
        22                          0.2866854               7.8011
      -------------------------------------------------------------
                  HL-Gap            0.1694848 Eh            4.6119 eV
             Fermi-level           -0.5138919 Eh          -13.9837 eV

     #   Z          covCN         q      C6AA      α(0)
     1   7 N        2.650    -0.272    27.047     7.724
     2   6 C        2.730     0.261    22.608     7.784
     3   7 N        2.652    -0.208    25.521     7.503
     4   1 H        0.860     0.244     0.905     1.490
     5   1 H        0.860     0.237     0.934     1.514
     6   7 N        2.651    -0.206    25.481     7.497
     7   1 H        0.860     0.230     0.963     1.537
     8   1 H        0.860     0.230     0.967     1.540
     9   1 H        0.860     0.245     0.902     1.487
    10   1 H        0.860     0.238     0.932     1.512

 Mol. C6AA /au·bohr⁶  :        666.378424
 Mol. C8AA /au·bohr⁸  :      13789.635572
 Mol. α(0) /au        :         39.589038


Wiberg/Mayer (AO) data.
largest (>0.10) Wiberg bond orders for each atom

 ---------------------------------------------------------------------------
     #   Z sym  total        # sym  WBO       # sym  WBO       # sym  WBO
 ---------------------------------------------------------------------------
     1   7 N    3.239 --     2 C    1.218     8 H    0.918     7 H    0.916
     2   6 C    3.973 --     6 N    1.372     3 N    1.370     1 N    1.218
     3   7 N    3.465 --     2 C    1.370     5 H    0.923     4 H    0.921
                             6 N    0.137
     4   1 H    0.940 --     3 N    0.921
     5   1 H    0.944 --     3 N    0.923
     6   7 N    3.464 --     2 C    1.372    10 H    0.923     9 H    0.921
                             3 N    0.137
     7   1 H    0.947 --     1 N    0.916
     8   1 H    0.947 --     1 N    0.918
     9   1 H    0.940 --     6 N    0.921
    10   1 H    0.943 --     6 N    0.923
 ---------------------------------------------------------------------------

Topologies differ in total number of bonds
Writing topology from bond orders to xtbtopo.mol

molecular dipole:
                 x           y           z       tot (Debye)
 q only:        0.080      -0.198       0.043
   full:        0.097      -0.217       0.029       0.609
molecular quadrupole (traceless):
                xx          xy          yy          xz          yz          zz
 q only:        1.321      -0.528       3.583       4.379       0.949      -4.903
  q+dip:        1.136      -1.049       4.421       5.321       1.251      -5.556
   full:        0.971      -1.065       4.198       5.078       1.214      -5.168

           -------------------------------------------------
          |                Geometry Summary                 |
           -------------------------------------------------

      molecular mass/u    :       60.0784900
   center of mass at/Å    :        0.0071344      -0.0036242      -0.0127131
  moments of inertia/u·Å² :        0.4959322E+02   0.5134882E+02   0.9884226E+02
rotational constants/cm⁻¹ :        0.3399181E+00   0.3282964E+00   0.1705509E+00

 * 9 selected distances

     #   Z          #   Z                                           value/Å
     1   7 N        2   6 C                                       1.3502066 (max)
     2   6 C        3   7 N                                       1.3246724
     3   7 N        4   1 H                                       1.0090551
     3   7 N        5   1 H                                       1.0088474
     2   6 C        6   7 N                                       1.3238148
     1   7 N        7   1 H                                       1.0045734 (min)
     1   7 N        8   1 H                                       1.0049009
     6   7 N        9   1 H                                       1.0090292
     6   7 N       10   1 H                                       1.0089725

 * 2 distinct bonds (by element types)

   Z      Z             #   av. dist./Å        max./Å        min./Å
   1 H    7 N           6     1.0075631     1.0090551     1.0045734
   6 C    7 N           3     1.3328979     1.3502066     1.3238148


optimized geometry written to: xtbopt.xyz


           -------------------------------------------------
          | TOTAL ENERGY              -13.542689600782 Eh   |
          | GRADIENT NORM               0.000379073812 Eh/α |
          | HOMO-LUMO GAP               4.611916299752 eV   |
           -------------------------------------------------

------------------------------------------------------------------------
 * finished run on 2022/11/03 at 12:40:11.531     
------------------------------------------------------------------------
 total:
 * wall-time:     0 d,  0 h,  0 min,  2.640 sec
 *  cpu-time:     0 d,  0 h,  0 min, 21.005 sec
 * ratio c/w:     7.957 speedup
 SCF:
 * wall-time:     0 d,  0 h,  0 min,  0.283 sec
 *  cpu-time:     0 d,  0 h,  0 min,  2.254 sec
 * ratio c/w:     7.967 speedup
 ANC optimizer:
 * wall-time:     0 d,  0 h,  0 min,  2.299 sec
 *  cpu-time:     0 d,  0 h,  0 min, 18.288 sec
 * ratio c/w:     7.956 speedup

