2022-11-03:12:41:32,475 INFO     [psi4.driver.task_planner:266] PLANNING Atomic:  keywords={'FREEZE_CORE': 'TRUE', 'function_kwargs': {}}
2022-11-03:12:41:32,478 INFO     [psi4.driver.driver:499] Compute energy(): method=wb97x-d, basis=6-311+g*, molecule=default, nre=133.97993190650593
2022-11-03:12:41:39,472 INFO     [psi4.driver.driver:502] Return energy(): -205.74945815898647

    A. Alenaizan, A. M. James, S. Lehtola, J. P. Misiewicz, M. Scheurer,
    R. A. Shaw, J. B. Schriber, Y. Xie, Z. L. Glick, D. A. Sirianni,
    J. S. O'Brien, J. M. Waldrop, A. Kumar, E. G. Hohenstein,
    B. P. Pritchard, B. R. Brooks, H. F. Schaefer III, A. Yu. Sokolov,
    K. Patkowski, A. E. DePrince III, U. Bozkaya, R. A. King,
    F. A. Evangelista, J. M. Turney, T. D. Crawford, C. D. Sherrill,
    J. Chem. Phys. 152(18) 184108 (2020). https://doi.org/10.1063/5.0006002

                            Additional Code Authors
    E. T. Seidl, C. L. Janssen, E. F. Valeev, M. L. Leininger,
    J. F. Gonthier, R. M. Richard, H. R. McAlexander, M. Saitow, X. Wang,
    P. Verma, M. H. Lechner, and A. Jiang

             Previous Authors, Complete List of Code Contributors,
                       and Citations for Specific Modules
    https://github.com/psi4/psi4/blob/master/codemeta.json
    https://github.com/psi4/psi4/graphs/contributors
    http://psicode.org/psi4manual/master/introduction.html#citing-psifour

    -----------------------------------------------------------------------


    Psi4 started on: Thursday, 03 November 2022 12:41PM

    Process ID: 6946
    Host:       DESKTOP-26BCFJT
    PSIDATADIR: /home/chase/psi4conda/share/psi4
    Memory:     500.0 MiB
    Threads:    1
    
  ==> Input File <==

--------------------------------------------------------------------------
molecule { 
1 1
 N   -0.575485    1.184712   -0.170925
 C    0.000005    0.000000   -0.000006
 N    1.291814   -0.073730    0.299551
 H    1.854702    0.754789    0.402074
 H    1.749475   -0.960497    0.433674
 N   -0.716318   -1.110981   -0.128640
 H   -1.553020    1.265176   -0.398405
 H   -0.052595    2.040186   -0.078470
 H   -1.696869   -1.079686   -0.355214
 H   -0.301671   -2.019965   -0.003685
}
memory 1GB
set_num_threads(2)
psi4_io.set_default_path("/home/chase/temp/Psi4-guan")
set freeze_core True
E, wfn = energy('wb97x-d/6-311+G*',return_wfn=True)
oeprop(wfn,"WIBERG_LOWDIN_INDICES")
clean()
--------------------------------------------------------------------------

  Memory set to 953.674 MiB by Python driver.
  Threads set to 2 by Python driver.

Scratch directory: /home/chase/temp/Psi4-guan/

*** tstart() called on DESKTOP-26BCFJT
*** at Thu Nov  3 12:41:32 2022

   => Loading Basis Set <=

    Name: 6-311+G*
    Role: ORBITAL
    Keyword: BASIS
    atoms 1, 3, 6   entry N          line   151 file /home/chase/psi4conda/share/psi4/basis/6-311pgs.gbs 
    atoms 2         entry C          line   130 file /home/chase/psi4conda/share/psi4/basis/6-311pgs.gbs 
    atoms 4-5, 7-10 entry H          line    47 file /home/chase/psi4conda/share/psi4/basis/6-311pgs.gbs 

   => WB97X-D: Empirical Dispersion <=

    Chai and Head-Gordon Dispersion Correction
    Chai, J.-D.; Head-Gordon, M. (2010), J. Chem. Phys., 132: 6615-6620

        s6 =       1.000000


         ---------------------------------------------------------
                                   SCF
               by Justin Turney, Rob Parrish, Andy Simmonett
                          and Daniel G. A. Smith
                              RKS Reference
                        2 Threads,    953 MiB Core
         ---------------------------------------------------------

  ==> Geometry <==

    Molecular point group: c1
    Full point group: C1

    Geometry (in Angstrom), charge = 1, multiplicity = 1:

       Center              X                  Y                   Z               Mass       
    ------------   -----------------  -----------------  -----------------  -----------------
         N           -0.575488933084     1.184711716490    -0.170920100479    14.003074004430
         C            0.000001066916    -0.000000283510    -0.000001100479    12.000000000000
         N            1.291810066916    -0.073730283510     0.299555899521    14.003074004430
         H            1.854698066916     0.754788716490     0.402078899521     1.007825032230
         H            1.749471066916    -0.960497283510     0.433678899521     1.007825032230
         N           -0.716321933084    -1.110981283510    -0.128635100479    14.003074004430
         H           -1.553023933084     1.265175716490    -0.398400100479     1.007825032230
         H           -0.052598933084     2.040185716490    -0.078465100479     1.007825032230
         H           -1.696872933084    -1.079686283510    -0.355209100479     1.007825032230
         H           -0.301674933084    -2.019965283510    -0.003680100479     1.007825032230

  Running in c1 symmetry.

  Rotational constants: A =      0.33944  B =      0.33944  C =      0.16972 [cm^-1]
  Rotational constants: A =  10176.23177  B =  10176.22697  C =   5088.11469 [MHz]
  Nuclear repulsion =  133.979931906505925

  Charge       = 1
  Multiplicity = 1
  Electrons    = 32
  Nalpha       = 16
  Nbeta        = 16

  ==> Algorithm <==

  SCF Algorithm Type is DF.
  DIIS enabled.
  MOM disabled.
  Fractional occupation disabled.
  Guess Type is SAD.
  Energy threshold   = 1.00e-06
  Density threshold  = 1.00e-06
  Integral threshold = 1.00e-12

  ==> Primary Basis <==

  Basis Set: 6-311+G*
    Blend: 6-311+G*
    Number of shells: 58
    Number of basis functions: 106
    Number of Cartesian functions: 110
    Spherical Harmonics?: true
    Max angular momentum: 2

  ==> DFT Potential <==

   => LibXC <=

    Version 5.1.5
    S. Lehtola, C. Steigemann, M. J. Oliveira, and M. A. Marques, SoftwareX 7, 1 (2018) (10.1016/j.softx.2017.11.002)

   => Composite Functional: WB97X-D <= 

    wB97X-D Hyb-GGA Exchange-Correlation Functional

    J.-D. Chai and M. Head-Gordon, Phys. Chem. Chem. Phys. 10, 6615 (2008) (10.1039/B810189B)

    Deriv               =              1
    GGA                 =           TRUE
    Meta                =          FALSE

    Exchange Hybrid     =           TRUE
    MP2 Hybrid          =          FALSE

   => Exchange-Correlation Functionals <=

    1.0000   wB97X-D range-separated functional

   => Exact (HF) Exchange <=

    0.7780            HF,LR [omega = 0.2000]
    0.2220               HF 

   => LibXC Density Thresholds  <==

    XC_HYB_GGA_XC_WB97X_D:  1.00E-14 

   => Molecular Quadrature <=

    Radial Scheme          =       TREUTLER
    Pruning Scheme         =           NONE
    Nuclear Scheme         =       TREUTLER

    Blocking Scheme        =         OCTREE
    BS radius alpha        =              1
    Pruning alpha          =              1
    Radial Points          =             75
    Spherical Points       =            302
    Total Points           =         216397
    Total Blocks           =           1644
    Max Points             =            256
    Max Functions          =            106
    Weights Tolerance      =       1.00E-15

   => Loading Basis Set <=

    Name: (6-311+G* AUX)
    Role: JKFIT
    Keyword: DF_BASIS_SCF
    atoms 1, 3, 6   entry N          line   262 file /home/chase/psi4conda/share/psi4/basis/heavy-aug-cc-pvtz-jkfit.gbs 
    atoms 2         entry C          line   200 file /home/chase/psi4conda/share/psi4/basis/heavy-aug-cc-pvtz-jkfit.gbs 
    atoms 4-5, 7-10 entry H          line   116 file /home/chase/psi4conda/share/psi4/basis/heavy-aug-cc-pvtz-jkfit.gbs 

  ==> Integral Setup <==

  DFHelper Memory: AOs need 0.154 GiB; user supplied 0.154 GiB. Using in-core AOs.

  ==> MemDFJK: Density-Fitted J/K Matrices <==

    J tasked:                   Yes
    K tasked:                   Yes
    wK tasked:                  Yes
    Omega:                2.000E-01
    OpenMP threads:               2
    Memory [MiB]:               157
    Algorithm:                 Core
    Schwarz Cutoff:           1E-12
    Mask sparsity (%):       0.4628
    Fitting Condition:        1E-10

   => Auxiliary Basis Set <=

  Basis Set: (6-311+G* AUX)
    Blend: HEAVY-AUG-CC-PVTZ-JKFIT
    Number of shells: 180
    Number of basis functions: 596
    Number of Cartesian functions: 734
    Spherical Harmonics?: true
    Max angular momentum: 4

  Cached 50.0% of DFT collocation blocks in 0.277 [GiB].

  Minimum eigenvalue in the overlap matrix is 7.8466503689E-04.
  Reciprocal condition number of the overlap matrix is 8.5313071786E-05.
    Using symmetric orthogonalization.

  ==> Pre-Iterations <==

  SCF Guess: Superposition of Atomic Densities via on-the-fly atomic UHF (no occupation information).

   -------------------------
    Irrep   Nso     Nmo    
   -------------------------
     A        106     106 
   -------------------------
    Total     106     106
   -------------------------

  ==> Iterations <==

                           Total Energy        Delta E     RMS |[F,P]|

   @DF-RKS iter SAD:  -205.63089000406580   -2.05631e+02   0.00000e+00 
   @DF-RKS iter   1:  -205.48970949131512    1.41181e-01   7.72413e-03 DIIS/ADIIS
   @DF-RKS iter   2:  -205.57570943333351   -8.59999e-02   6.42326e-03 DIIS/ADIIS
   @DF-RKS iter   3:  -205.74874600864388   -1.73037e-01   3.48473e-04 DIIS/ADIIS
   @DF-RKS iter   4:  -205.74929761816119   -5.51610e-04   1.80959e-04 DIIS/ADIIS
   @DF-RKS iter   5:  -205.74945598086484   -1.58363e-04   1.87124e-05 DIIS
   @DF-RKS iter   6:  -205.74945814823306   -2.16737e-06   9.99597e-07 DIIS
   @DF-RKS iter   7:  -205.74945815898647   -1.07534e-08   1.77482e-07 DIIS
  Energy and wave function converged.


  ==> Post-Iterations <==

   Electrons on quadrature grid:
      Ntotal   =   32.0000061188 ; deviation = 6.119e-06 

    Orbital Energies [Eh]
    ---------------------

    Doubly Occupied:                                                      

       1A    -14.669200     2A    -14.669189     3A    -14.669147  
       4A    -10.644145     5A     -1.334534     6A     -1.211397  
       7A     -1.211392     8A     -0.962456     9A     -0.893027  
      10A     -0.893023    11A     -0.792476    12A     -0.791623  
      13A     -0.791617    14A     -0.740998    15A     -0.570273  
      16A     -0.570267  

    Virtual:                                                              

      17A     -0.104128    18A     -0.101223    19A     -0.067953  
      20A     -0.067950    21A     -0.025309    22A     -0.025306  
      23A     -0.024089    24A      0.001373    25A      0.016980  
      26A      0.033882    27A      0.048762    28A      0.048767  
      29A      0.071933    30A      0.071936    31A      0.077476  
      32A      0.077479    33A      0.112751    34A      0.130306  
      35A      0.136145    36A      0.136149    37A      0.183612  
      38A      0.183614    39A      0.188011    40A      0.198268  
      41A      0.322064    42A      0.322066    43A      0.404181  
      44A      0.404186    45A      0.439698    46A      0.447235  
      47A      0.504692    48A      0.504702    49A      0.565932  
      50A      0.602609    51A      0.604257    52A      0.604259  
      53A      0.673338    54A      0.673342    55A      0.693700  
      56A      0.720738    57A      0.720743    58A      0.761624  
      59A      0.816175    60A      0.816187    61A      0.956070  
      62A      1.008502    63A      1.075104    64A      1.075148  
      65A      1.250314    66A      1.250343    67A      1.556827  
      68A      1.643740    69A      1.643750    70A      1.748720  
      71A      1.750204    72A      1.750217    73A      1.852789  
      74A      1.933900    75A      1.942916    76A      1.942926  
      77A      1.989328    78A      2.181748    79A      2.181765  
      80A      2.386269    81A      2.386276    82A      2.528378  
      83A      2.531838    84A      2.531841    85A      2.559897  
      86A      2.559905    87A      2.624943    88A      2.726122  
      89A      2.756793    90A      3.154262    91A      3.154269  
      92A      3.291411    93A      3.291420    94A      3.706957  
      95A      3.706963    96A      3.777479    97A      4.060779  
      98A      4.112622    99A      4.112631   100A      4.233217  
     101A      4.758005   102A      4.758016   103A     23.729794  
     104A     35.223796   105A     35.532107   106A     35.532125  

    Final Occupation by Irrep:
              A 
    DOCC [    16 ]

  @DF-RKS Final Energy:  -205.74945815898647

   => Energetics <=

    Nuclear Repulsion Energy =            133.9799319065059251
    One-Electron Energy =                -535.4132843278656537
    Two-Electron Energy =                 215.1601632420340877
    DFT Exchange-Correlation Energy =     -19.4733621297413038
    Empirical Dispersion Energy =          -0.0029068499195416
    VV10 Nonlocal Energy =                  0.0000000000000000
    Total Energy =                       -205.7494581589864708

Computation Completed


Properties will be evaluated at   0.000000,   0.000000,   0.000000 [a0]

Properties computed using the SCF density matrix


 Multipole Moments:

 ------------------------------------------------------------------------------------
     Multipole            Electronic (a.u.)      Nuclear  (a.u.)        Total (a.u.)
 ------------------------------------------------------------------------------------

 L = 1.  Multiply by 2.5417464519 to convert [e a0] to [Debye]
 Dipole X            :          0.0000449           -0.0000015            0.0000434
 Dipole Y            :         -0.0000101            0.0000012           -0.0000089
 Dipole Z            :          0.0000074            0.0000032            0.0000106
 Magnitude           :                                                    0.0000455

 ------------------------------------------------------------------------------------

*** tstop() called on DESKTOP-26BCFJT at Thu Nov  3 12:41:39 2022
Module time:
	user time   =      13.41 seconds =       0.22 minutes
	system time =       0.27 seconds =       0.00 minutes
	total time  =          7 seconds =       0.12 minutes
Total time:
	user time   =      13.41 seconds =       0.22 minutes
	system time =       0.27 seconds =       0.00 minutes
	total time  =          7 seconds =       0.12 minutes


Properties will be evaluated at   0.000000,   0.000000,   0.000000 [a0]
OEProp: No title given, name of density matrix used for the following properties is 'SCF density'


  Wiberg Bond Indices using Orthogonal Lowdin Orbitals:

  Irrep: 1 Size: 10 x 10

                 1                   2                   3                   4                   5

    1     0.00000000000000     1.54476981148757     0.18763730714870     0.01367729405345     0.00944652102134
    2     1.54476981148757     0.00000000000000     1.54477338597649     0.05299776069911     0.05300036415103
    3     0.18763730714870     1.54477338597649     0.00000000000000     0.83345539688698     0.83346558774290
    4     0.01367729405345     0.05299776069911     0.83345539688698     0.00000000000000     0.01137757591082
    5     0.00944652102134     0.05300036415103     0.83346558774290     0.01137757591082     0.00000000000000
    6     0.18764085491363     1.54479567209238     0.18764192443949     0.00944629692870     0.01367816484187
    7     0.83347616391044     0.05299854707462     0.00944647802974     0.00050585987237     0.00071732839984
    8     0.83345893207195     0.05299832927235     0.01367760730458     0.00131299411569     0.00050591588569
    9     0.01367718408132     0.05299857776119     0.00944625736626     0.00071729098736     0.00050594025786
   10     0.00944661884201     0.05299869354822     0.01367768099069     0.00050587242137     0.00131310239014

                 6                   7                   8                   9                  10

    1     0.18764085491363     0.83347616391044     0.83345893207195     0.01367718408132     0.00944661884201
    2     1.54479567209238     0.05299854707462     0.05299832927235     0.05299857776119     0.05299869354822
    3     0.18764192443949     0.00944647802974     0.01367760730458     0.00944625736626     0.01367768099069
    4     0.00944629692870     0.00050585987237     0.00131299411569     0.00071729098736     0.00050587242137
    5     0.01367816484187     0.00071732839984     0.00050591588569     0.00050594025786     0.00131310239014
    6     0.00000000000000     0.01367732337645     0.00944639041790     0.83346737790844     0.83347169154550
    7     0.01367732337645     0.00000000000000     0.01137751874968     0.00131293903591     0.00050586259947
    8     0.00944639041790     0.01137751874968     0.00000000000000     0.00050585017128     0.00071729410156
    9     0.83346737790844     0.00131293903591     0.00050585017128     0.00000000000000     0.01137788583451
   10     0.83347169154550     0.00050586259947     0.00071729410156     0.01137788583451     0.00000000000000



  Atomic Valences: 

 #  #
 Irrep: 1
      1:    3.633230687530403
      2:    4.952331142062959
      3:    3.633221625885830
      4:    0.923996341875855
      5:    0.924010500601487
      6:    3.633265696464369
      7:    0.924018021048518
      8:    0.924000832090688
      9:    0.924009303404148
     10:    0.924014702273478


    Psi4 stopped on: Thursday, 03 November 2022 12:41PM
    Psi4 wall time for execution: 0:00:07.05

*** Psi4 exiting successfully. Buy a developer a beer!
