      -----------------------------------------------------------      
     |                   =====================                   |     
     |                           x T B                           |     
     |                   =====================                   |     
     |                         S. Grimme                         |     
     |          Mulliken Center for Theoretical Chemistry        |     
     |                    University of Bonn                     |     
      -----------------------------------------------------------      

   * xtb version 6.5.1 (b24c23e) compiled by 'conda@728c89f4b128' on 2022-07-12

   xtb is free software: you can redistribute it and/or modify it under
   the terms of the GNU Lesser General Public License as published by
   the Free Software Foundation, either version 3 of the License, or
   (at your option) any later version.
   
   xtb is distributed in the hope that it will be useful,
   but WITHOUT ANY WARRANTY; without even the implied warranty of
   MERCHANTABILITY or FITNESS FOR A PARTICULAR PURPOSE.  See the
   GNU Lesser General Public License for more details.
   
   Cite this work as:
   * C. Bannwarth, E. Caldeweyher, S. Ehlert, A. Hansen, P. Pracht,
     J. Seibert, S. Spicher, S. Grimme, WIREs Comput. Mol. Sci., 2020, 11,
     e01493. DOI: 10.1002/wcms.1493
   
   for GFN2-xTB:
   * C. Bannwarth, S. Ehlert and S. Grimme., J. Chem. Theory Comput., 2019,
     15, 1652-1671. DOI: 10.1021/acs.jctc.8b01176
   for GFN1-xTB:
   * S. Grimme, C. Bannwarth, P. Shushkov, J. Chem. Theory Comput., 2017,
     13, 1989-2009. DOI: 10.1021/acs.jctc.7b00118
   for GFN0-xTB:
   * P. Pracht, E. Caldeweyher, S. Ehlert, S. Grimme, ChemRxiv, 2019, preprint.
     DOI: 10.26434/chemrxiv.8326202.v1
   for GFN-FF:
   * S. Spicher and S. Grimme, Angew. Chem. Int. Ed., 2020, 59, 15665-15673.
     DOI: 10.1002/anie.202004239
   
   for ALPB and GBSA implicit solvation:
   * S. Ehlert, M. Stahn, S. Spicher, S. Grimme, J. Chem. Theory Comput.,
     2021, 17, 4250-4261. DOI: 10.1021/acs.jctc.1c00471
   
   for DFT-D4:
   * E. Caldeweyher, C. Bannwarth and S. Grimme, J. Chem. Phys., 2017,
     147, 034112. DOI: 10.1063/1.4993215
   * E. Caldeweyher, S. Ehlert, A. Hansen, H. Neugebauer, S. Spicher,
     C. Bannwarth and S. Grimme, J. Chem. Phys., 2019, 150, 154122.
     DOI: 10.1063/1.5090222
   * E. Caldeweyher, J.-M. Mewes, S. Ehlert and S. Grimme, Phys. Chem. Chem. Phys.
     2020, 22, 8499-8512. DOI: 10.1039/D0CP00502A
   
   for sTDA-xTB:
   * S. Grimme and C. Bannwarth, J. Chem. Phys., 2016, 145, 054103.
     DOI: 10.1063/1.4959605
   
   in the mass-spec context:
   * V. Asgeirsson, C. Bauer and S. Grimme, Chem. Sci., 2017, 8, 4879.
     DOI: 10.1039/c7sc00601b
   * J. Koopman and S. Grimme, ACS Omega 2019, 4, 12, 15120-15133.
     DOI: 10.1021/acsomega.9b02011
   
   for metadynamics refer to:
   * S. Grimme, J. Chem. Theory Comput., 2019, 155, 2847-2862
     DOI: 10.1021/acs.jctc.9b00143
   
   for SPH calculations refer to:
   * S. Spicher and S. Grimme, J. Chem. Theory Comput., 2021, 17, 1701-1714
     DOI: 10.1021/acs.jctc.0c01306
   
   with help from (in alphabetical order)
   P. Atkinson, C. Bannwarth, F. Bohle, G. Brandenburg, E. Caldeweyher
   M. Checinski, S. Dohm, S. Ehlert, S. Ehrlich, I. Gerasimov, C. Hölzer
   A. Katbashev, J. Koopman, C. Lavigne, S. Lehtola, F. März, M. Müller,
   F. Musil, H. Neugebauer, J. Pisarek, C. Plett, P. Pracht, F. Pultar,
   J. Seibert, P. Shushkov, S. Spicher, M. Stahn, M. Steiner, T. Strunk,
   J. Stückrath, T. Rose, and J. Unsleber
   
 * started run on 2022/11/03 at 12:40:04.707     

           -------------------------------------------------
          |                Calculation Setup                |
           -------------------------------------------------

          program call               : /home/chase/psi4conda/envs/xtbenv/bin/xtb --gfn 2 --chrg 1 --uhf 0 guan-opt-1-2-090_preQMOPTprefit_xyzformat.xyz --opt --input xtb-opt-1-2-090_constr.txt
          coordinate file            : guan-opt-1-2-090_preQMOPTprefit_xyzformat.xyz
          omp threads                :                     8

   ID    Z sym.   atoms
    1    7 N      1, 3, 6
    2    6 C      2
    3    1 H      4, 5, 7-10
constraining angle 7 1 2 6 to   90.0002784°, actual value:   90.0002784°
constraining angle 8 1 2 6 to  270.0000878°, actual value:  -89.9999122°
constraining angle 9 6 2 1 to    0.0005029°, actual value:    0.0005029°
constraining angle 10 6 2 1 to  180.0008607°, actual value: -179.9991393°
constraining angle 4 3 2 1 to    0.0001915°, actual value:    0.0001915°
constraining angle 5 3 2 1 to  180.0003043°, actual value: -179.9996957°

           -------------------------------------------------
          |                 G F N 2 - x T B                 |
           -------------------------------------------------

        Reference                      10.1021/acs.jctc.8b01176
      * Hamiltonian:
        H0-scaling (s, p, d)           1.850000    2.230000    2.230000
        zeta-weighting                 0.500000
      * Dispersion:
        s8                             2.700000
        a1                             0.520000
        a2                             5.000000
        s9                             5.000000
      * Repulsion:
        kExp                           1.500000    1.000000
        rExp                           1.000000
      * Coulomb:
        alpha                          2.000000
        third order                    shell-resolved
        anisotropic                    true
        a3                             3.000000
        a5                             4.000000
        cn-shift                       1.200000
        cn-exp                         4.000000
        max-rad                        5.000000

q/qsh data taken from xtbrestart
CAMM data taken from xtbrestart

          ...................................................
          :                      SETUP                      :
          :.................................................:
          :  # basis functions                  22          :
          :  # atomic orbitals                  22          :
          :  # shells                           14          :
          :  # electrons                        24          :
          :  max. iterations                   250          :
          :  Hamiltonian                  GFN2-xTB          :
          :  restarted?                       true          :
          :  GBSA solvation                  false          :
          :  PC potential                    false          :
          :  electronic temp.          300.0000000     K    :
          :  accuracy                    1.0000000          :
          :  -> integral cutoff          0.2500000E+02      :
          :  -> integral neglect         0.1000000E-07      :
          :  -> SCF convergence          0.1000000E-05 Eh   :
          :  -> wf. convergence          0.1000000E-03 e    :
          :  Broyden damping             0.4000000          :
          ...................................................

 iter      E             dE          RMSdq      gap      omega  full diag
   1    -13.7176004 -0.137176E+02  0.777E-01    3.97       0.0  T
   2    -13.7183695 -0.769127E-03  0.410E-01    3.62       1.0  T
   3    -13.7184043 -0.347760E-04  0.129E-01    3.50       1.0  T
   4    -13.7184086 -0.432027E-05  0.232E-02    3.50       1.4  T
   5    -13.7184095 -0.933127E-06  0.109E-02    3.50       2.9  T
   6    -13.7184096 -0.783705E-07  0.189E-03    3.50      16.7  T
   7    -13.7184096 -0.111908E-07  0.677E-04    3.50      46.7  T
   8    -13.7184096 -0.100752E-08  0.174E-04    3.50     181.3  T

   *** convergence criteria satisfied after 8 iterations ***

         #    Occupation            Energy/Eh            Energy/eV
      -------------------------------------------------------------
         1        2.0000           -0.9029107             -24.5695
       ...           ...                  ...                  ...
         6        2.0000           -0.7606960             -20.6996
         7        2.0000           -0.7568503             -20.5949
         8        2.0000           -0.7231753             -19.6786
         9        2.0000           -0.7102750             -19.3276
        10        2.0000           -0.6834133             -18.5966
        11        2.0000           -0.6329999             -17.2248
        12        2.0000           -0.5769197             -15.6988 (HOMO)
        13                         -0.4481815             -12.1956 (LUMO)
        14                         -0.2302624              -6.2658
        15                         -0.1471408              -4.0039
        16                         -0.1379195              -3.7530
        17                         -0.0406594              -1.1064
       ...                                ...                  ...
        22                          0.2753436               7.4925
      -------------------------------------------------------------
                  HL-Gap            0.1287382 Eh            3.5031 eV
             Fermi-level           -0.5125506 Eh          -13.9472 eV

 SCC (total)                   0 d,  0 h,  0 min,  0.213 sec
 SCC setup                      ...        0 min,  0.008 sec (  3.563%)
 Dispersion                     ...        0 min,  0.019 sec (  8.737%)
 classical contributions        ...        0 min,  0.011 sec (  5.337%)
 integral evaluation            ...        0 min,  0.025 sec ( 11.816%)
 iterations                     ...        0 min,  0.096 sec ( 44.863%)
 molecular gradient             ...        0 min,  0.055 sec ( 25.612%)
 printout                       ...        0 min,  0.000 sec (  0.065%)

         :::::::::::::::::::::::::::::::::::::::::::::::::::::
         ::                     SUMMARY                     ::
         :::::::::::::::::::::::::::::::::::::::::::::::::::::
         :: total energy             -13.530333642275 Eh    ::
         :: gradient norm              0.051169024928 Eh/a0 ::
         :: HOMO-LUMO gap              3.503143874993 eV    ::
         ::.................................................::
         :: SCC energy               -13.718409639993 Eh    ::
         :: -> isotropic ES            0.113759465827 Eh    ::
         :: -> anisotropic ES         -0.009590761599 Eh    ::
         :: -> anisotropic XC          0.011566392588 Eh    ::
         :: -> dispersion             -0.003406252047 Eh    ::
         :: repulsion energy           0.188073511790 Eh    ::
         :: add. restraining           0.000000000000 Eh    ::
         :: total charge               1.000000000000 e     ::
         :::::::::::::::::::::::::::::::::::::::::::::::::::::

      ----------------------------------------------------------- 
     |                   =====================                   |
     |                        A N C O P T                        |
     |                   =====================                   |
     |               Approximate Normal Coordinate               |
     |                Rational Function Optimizer                |
      ----------------------------------------------------------- 

          ...................................................
          :                      SETUP                      :
          :.................................................:
          :   optimization level            normal          :
          :   max. optcycles                   200          :
          :   ANC micro-cycles                  20          :
          :   degrees of freedom                24          :
          :.................................................:
          :   RF solver                   davidson          :
          :   write xtbopt.log                true          :
          :   linear?                        false          :
          :   energy convergence         0.5000000E-05 Eh   :
          :   grad. convergence          0.1000000E-02 Eh/α :
          :   maximium RF displ.         1.0000000          :
          :   Hlow (freq-cutoff)         0.1000000E-01      :
          :   Hmax (freq-cutoff)         5.0000000          :
          :   S6 in model hess.         20.0000000          :
          ...................................................

generating ANC from model Hessian ...
Using Lindh-Hessian (1995)
 Shifting diagonal of input Hessian by    0.0000000000000000     
 Lowest  eigenvalues of input Hessian
    0.000000    0.000000    0.000000    0.000000    0.000000    0.000000
    0.038300    0.039526    0.052051    0.137443    0.142745    0.180257
    0.182272    0.336206    0.355578    0.413799    0.743549    0.791268
 Highest eigenvalues
    2.122356    2.335768    7.609079   10.141367   10.624719   25.761807


........................................................................
.............................. CYCLE    1 ..............................
........................................................................
   1    -13.7184096 -0.137184E+02  0.370E-05    3.50       0.0  T
   2    -13.7184096 -0.395772E-11  0.166E-05    3.50    1903.5  T
   3    -13.7184096 -0.264677E-12  0.982E-06    3.50    3220.8  T
     SCC iter.                  ...        0 min,  0.062 sec
     gradient                   ...        0 min,  0.048 sec
 * total energy  :   -13.5303336 Eh     change       -0.3063150E-10 Eh
   gradient norm :     0.0511662 Eh/α   predicted     0.0000000E+00 (-100.00%)
   displ. norm   :     0.1093303 α      lambda       -0.2665118E-02
   maximum displ.:     0.0735578 α      in ANC's #6, #1, #4, ...

........................................................................
.............................. CYCLE    2 ..............................
........................................................................
   1    -13.7263419 -0.137263E+02  0.147E-01    3.66       0.0  T
   2    -13.7263793 -0.374371E-04  0.835E-02    3.60       1.0  T
   3    -13.7263807 -0.135521E-05  0.343E-02    3.58       1.0  T
   4    -13.7263818 -0.115287E-05  0.839E-03    3.59       3.8  T
   5    -13.7263822 -0.409095E-06  0.246E-03    3.59      12.8  T
   6    -13.7263822 -0.202390E-08  0.253E-04    3.59     125.2  T
   7    -13.7263822 -0.988898E-10  0.630E-05    3.59     501.9  T
     SCC iter.                  ...        0 min,  0.103 sec
     gradient                   ...        0 min,  0.047 sec
 * total energy  :   -13.5320272 Eh     change       -0.1693550E-02 Eh
   gradient norm :     0.0174460 Eh/α   predicted    -0.1348487E-02 ( -20.38%)
   displ. norm   :     0.0385622 α      lambda       -0.3366113E-03
   maximum displ.:     0.0309996 α      in ANC's #6, #4, #1, ...

........................................................................
.............................. CYCLE    3 ..............................
........................................................................
   1    -13.7286301 -0.137286E+02  0.570E-02    3.65       0.0  T
   2    -13.7286401 -0.100142E-04  0.312E-02    3.62       1.0  T
   3    -13.7286408 -0.637380E-06  0.169E-02    3.61       1.9  T
   4    -13.7286409 -0.172767E-06  0.451E-03    3.61       7.0  T
   5    -13.7286410 -0.780651E-07  0.118E-03    3.61      26.7  T
   6    -13.7286410 -0.414097E-09  0.127E-04    3.61     248.8  T
   7    -13.7286410 -0.177831E-10  0.478E-05    3.61     662.0  T
     SCC iter.                  ...        0 min,  0.098 sec
     gradient                   ...        0 min,  0.049 sec
 * total energy  :   -13.5322069 Eh     change       -0.1796937E-03 Eh
   gradient norm :     0.0187168 Eh/α   predicted    -0.1685562E-03 (  -6.20%)
   displ. norm   :     0.0347313 α      lambda       -0.1218755E-03
   maximum displ.:     0.0283105 α      in ANC's #1, #6, #2, ...

........................................................................
.............................. CYCLE    4 ..............................
........................................................................
   1    -13.7289393 -0.137289E+02  0.292E-02    3.63       0.0  T
   2    -13.7289427 -0.343826E-05  0.150E-02    3.61       2.1  T
   3    -13.7289430 -0.315970E-06  0.868E-03    3.61       3.6  T
   4    -13.7289431 -0.427929E-07  0.276E-03    3.61      11.5  T
   5    -13.7289431 -0.168522E-07  0.663E-04    3.61      47.7  T
   6    -13.7289431 -0.131161E-09  0.776E-05    3.61     407.7  T
     SCC iter.                  ...        0 min,  0.131 sec
     gradient                   ...        0 min,  0.056 sec
 * total energy  :   -13.5321206 Eh     change        0.8629835E-04 Eh
   gradient norm :     0.0761111 Eh/α   predicted    -0.6101038E-04 (-170.70%)
   displ. norm   :     0.0117785 α      lambda       -0.2472795E-03
   maximum displ.:     0.0090085 α      in ANC's #1, #6, #21, ...

........................................................................
.............................. CYCLE    5 ..............................
........................................................................
   1    -13.7282782 -0.137283E+02  0.123E-02    3.59       0.0  T
   2    -13.7282784 -0.146040E-06  0.712E-03    3.60       4.4  T
   3    -13.7282784 -0.806527E-08  0.172E-03    3.60      18.4  T
   4    -13.7282784 -0.201304E-08  0.401E-04    3.60      78.8  T
   5    -13.7282784 -0.639497E-09  0.202E-04    3.60     156.2  T
     SCC iter.                  ...        0 min,  0.091 sec
     gradient                   ...        0 min,  0.048 sec
 * total energy  :   -13.5322509 Eh     change       -0.1303296E-03 Eh
   gradient norm :     0.0051837 Eh/α   predicted    -0.1236587E-03 (  -5.12%)
   displ. norm   :     0.0112020 α      lambda       -0.1045466E-04
   maximum displ.:     0.0104102 α      in ANC's #1, #2, #4, ...

........................................................................
.............................. CYCLE    6 ..............................
........................................................................
   1    -13.7281197 -0.137281E+02  0.649E-03    3.60       0.0  T
   2    -13.7281197 -0.206612E-07  0.355E-03    3.60       8.9  T
   3    -13.7281197  0.167393E-08  0.133E-03    3.60      23.8  T
   4    -13.7281197 -0.663238E-08  0.170E-04    3.60     186.6  T
   5    -13.7281197 -0.852296E-11  0.800E-05    3.60     395.2  T
     SCC iter.                  ...        0 min,  0.113 sec
     gradient                   ...        0 min,  0.050 sec
 * total energy  :   -13.5322559 Eh     change       -0.4933263E-05 Eh
   gradient norm :     0.0044234 Eh/α   predicted    -0.5227519E-05 (   5.96%)
   displ. norm   :     0.0131875 α      lambda       -0.5322051E-05
   maximum displ.:     0.0122781 α      in ANC's #1, #2, #4, ...

........................................................................
.............................. CYCLE    7 ..............................
........................................................................
   1    -13.7280439 -0.137280E+02  0.729E-03    3.60       0.0  T
   2    -13.7280439 -0.501533E-07  0.385E-03    3.60       8.2  T
   3    -13.7280439 -0.136700E-08  0.176E-03    3.60      18.0  T
   4    -13.7280439 -0.807076E-08  0.246E-04    3.60     128.5  T
   5    -13.7280439 -0.958487E-10  0.980E-05    3.60     322.7  T
     SCC iter.                  ...        0 min,  0.075 sec
     gradient                   ...        0 min,  0.042 sec
 * total energy  :   -13.5322584 Eh     change       -0.2577163E-05 Eh
   gradient norm :     0.0019545 Eh/α   predicted    -0.2659715E-05 (   3.20%)
   displ. norm   :     0.0016024 α      lambda       -0.4254665E-06
   maximum displ.:     0.0010155 α      in ANC's #4, #6, #9, ...

........................................................................
.............................. CYCLE    8 ..............................
........................................................................
   1    -13.7281356 -0.137281E+02  0.309E-03    3.60       0.0  T
   2    -13.7281356 -0.185164E-08  0.176E-03    3.60      18.0  T
   3    -13.7281356 -0.169850E-09  0.205E-04    3.60     153.9  T
   4    -13.7281356 -0.257192E-09  0.888E-05    3.60     356.0  T
     SCC iter.                  ...        0 min,  0.087 sec
     gradient                   ...        0 min,  0.055 sec
 * total energy  :   -13.5322588 Eh     change       -0.3261274E-06 Eh
   gradient norm :     0.0007697 Eh/α   predicted    -0.2143646E-06 ( -34.27%)
   displ. norm   :     0.0004380 α      lambda       -0.5896188E-07
   maximum displ.:     0.0002262 α      in ANC's #9, #6, #12, ...

   *** GEOMETRY OPTIMIZATION CONVERGED AFTER 8 ITERATIONS ***

------------------------------------------------------------------------
 total energy gain   :        -0.0019251 Eh       -1.2080 kcal/mol
 total RMSD          :         0.0452717 a0        0.0240 Å
 total power (kW/mol):        -0.6317973 (step)   -3.2595 (real)
------------------------------------------------------------------------

 ANCopt (total)                0 d,  0 h,  0 min,  1.551 sec
 optimizer setup                ...        0 min,  0.000 sec (  0.004%)
 model hessian                  ...        0 min,  0.003 sec (  0.221%)
 ANC generation                 ...        0 min,  0.003 sec (  0.205%)
 coordinate transformation      ...        0 min,  0.000 sec (  0.002%)
 single point calculation       ...        0 min,  1.498 sec ( 96.614%)
 optimization log               ...        0 min,  0.001 sec (  0.042%)
 hessian update                 ...        0 min,  0.044 sec (  2.838%)
 rational function              ...        0 min,  0.001 sec (  0.048%)

================
 final structure:
================
10
 xtb: 6.5.1 (b24c23e)
N           -0.57986593274710        1.19442138360032       -0.16982769644138
C            0.01199762402415       -0.02470849060070        0.00350573487232
N            1.24588709172787       -0.08650630149714        0.46334960760174
H            1.74092596290837        0.76701782528642        0.68275011067305
H            1.73519693231498       -0.95852744590116        0.61204173036519
N           -0.66045409697536       -1.11937730756026       -0.29191561467858
H           -1.10630441998004        1.62914764973201        0.56448205010868
H           -0.50634544487443        1.69263190191787       -1.03684001027806
H           -1.60546833757893       -1.04613422313378       -0.64303486713225
H           -0.27552937881952       -2.04795900184359       -0.18455804509071

 Bond Distances (Angstroems)
 ---------------------------
N1-C2=1.3662         N1-H7=1.0027         N1-H8=1.0027         C2-N1=1.3662         C2-N3=1.3182         C2-N6=1.3182         
N3-C2=1.3182         N3-H4=1.0108         N3-H5=1.0109         H4-N3=1.0108         H5-N3=1.0109         N6-C2=1.3182         
N6-H9=1.0108         N6-H10=1.0109        H7-N1=1.0027         H8-N1=1.0027         H9-N6=1.0108         H10-N6=1.0109        
 N  H  Rav=1.0081 sigma=0.0039  Rmin=1.0027  Rmax=1.0109     6
 N  C  Rav=1.3342 sigma=0.0226  Rmin=1.3182  Rmax=1.3662     3

 selected bond angles (degree)
 --------------------
H7-N1-C2=121.43                H8-N1-C2=121.42                H8-N1-H7=117.15                N3-C2-N1=119.44                
N6-C2-N1=119.44                N6-C2-N3=121.11                H4-N3-C2=119.64                H5-N3-C2=123.01                
H5-N3-H4=117.35                H9-N6-C2=119.64                H10-N6-C2=123.01               H10-N6-H9=117.35               

 selected dihedral angles (degree)
 ---------------------------------
N3-C2-N1-H7=270.00            N3-C2-N1-H8= 90.00            N6-C2-N1-H7= 90.00            N6-C2-N1-H8=270.00            
H4-N3-C2-N1=  0.00            H4-N3-C2-N6=180.00            H5-N3-C2-N1=180.00            H5-N3-C2-N6=  0.00            
H9-N6-C2-N1=  0.00            H9-N6-C2-N3=180.00            H10-N6-C2-N1=180.00           H10-N6-C2-N3=  0.00           
           -------------------------------------------------
          |                Final Singlepoint                |
           -------------------------------------------------

          ...................................................
          :                      SETUP                      :
          :.................................................:
          :  # basis functions                  22          :
          :  # atomic orbitals                  22          :
          :  # shells                           14          :
          :  # electrons                        24          :
          :  max. iterations                   250          :
          :  Hamiltonian                  GFN2-xTB          :
          :  restarted?                      false          :
          :  GBSA solvation                  false          :
          :  PC potential                    false          :
          :  electronic temp.          300.0000000     K    :
          :  accuracy                    1.0000000          :
          :  -> integral cutoff          0.2500000E+02      :
          :  -> integral neglect         0.1000000E-07      :
          :  -> SCF convergence          0.1000000E-05 Eh   :
          :  -> wf. convergence          0.1000000E-03 e    :
          :  Broyden damping             0.4000000          :
          ...................................................

 iter      E             dE          RMSdq      gap      omega  full diag
   1    -13.7281356 -0.137281E+02  0.316E-05    3.60       0.0  T
   2    -13.7281356 -0.143885E-12  0.189E-05    3.60    1677.1  T
   3    -13.7281356 -0.177636E-14  0.253E-06    3.60   12511.6  T

   *** convergence criteria satisfied after 3 iterations ***

         #    Occupation            Energy/Eh            Energy/eV
      -------------------------------------------------------------
         1        2.0000           -0.9083822             -24.7183
       ...           ...                  ...                  ...
         6        2.0000           -0.7627415             -20.7553
         7        2.0000           -0.7586493             -20.6439
         8        2.0000           -0.7249525             -19.7270
         9        2.0000           -0.7099651             -19.3191
        10        2.0000           -0.6863175             -18.6757
        11        2.0000           -0.6365810             -17.3223
        12        2.0000           -0.5743059             -15.6277 (HOMO)
        13                         -0.4420939             -12.0300 (LUMO)
        14                         -0.2251167              -6.1257
        15                         -0.1465226              -3.9871
        16                         -0.1366217              -3.7177
        17                         -0.0346069              -0.9417
       ...                                ...                  ...
        22                          0.2867437               7.8027
      -------------------------------------------------------------
                  HL-Gap            0.1322121 Eh            3.5977 eV
             Fermi-level           -0.5081999 Eh          -13.8288 eV

 SCC (total)                   0 d,  0 h,  0 min,  0.177 sec
 SCC setup                      ...        0 min,  0.004 sec (  2.408%)
 Dispersion                     ...        0 min,  0.007 sec (  4.045%)
 classical contributions        ...        0 min,  0.005 sec (  2.581%)
 integral evaluation            ...        0 min,  0.025 sec ( 14.228%)
 iterations                     ...        0 min,  0.068 sec ( 38.534%)
 molecular gradient             ...        0 min,  0.068 sec ( 38.101%)
 printout                       ...        0 min,  0.000 sec (  0.093%)

         :::::::::::::::::::::::::::::::::::::::::::::::::::::
         ::                     SUMMARY                     ::
         :::::::::::::::::::::::::::::::::::::::::::::::::::::
         :: total energy             -13.532258753458 Eh    ::
         :: gradient norm              0.000769876441 Eh/a0 ::
         :: HOMO-LUMO gap              3.597673453265 eV    ::
         ::.................................................::
         :: SCC energy               -13.728135594641 Eh    ::
         :: -> isotropic ES            0.114651717669 Eh    ::
         :: -> anisotropic ES         -0.009737461705 Eh    ::
         :: -> anisotropic XC          0.011446106125 Eh    ::
         :: -> dispersion             -0.003412864976 Eh    ::
         :: repulsion energy           0.195874448777 Eh    ::
         :: add. restraining           0.000000012497 Eh    ::
         :: total charge               1.000000000000 e     ::
         :::::::::::::::::::::::::::::::::::::::::::::::::::::

           -------------------------------------------------
          |                Property Printout                |
           -------------------------------------------------

    * Orbital Energies and Occupations

         #    Occupation            Energy/Eh            Energy/eV
      -------------------------------------------------------------
         1        2.0000           -0.9083822             -24.7183
         2        2.0000           -0.8610988             -23.4317
         3        2.0000           -0.8453967             -23.0044
         4        2.0000           -0.7901020             -21.4998
         5        2.0000           -0.7706577             -20.9707
         6        2.0000           -0.7627415             -20.7553
         7        2.0000           -0.7586493             -20.6439
         8        2.0000           -0.7249525             -19.7270
         9        2.0000           -0.7099651             -19.3191
        10        2.0000           -0.6863175             -18.6757
        11        2.0000           -0.6365810             -17.3223
        12        2.0000           -0.5743059             -15.6277 (HOMO)
        13                         -0.4420939             -12.0300 (LUMO)
        14                         -0.2251167              -6.1257
        15                         -0.1465226              -3.9871
        16                         -0.1366217              -3.7177
        17                         -0.0346069              -0.9417
        18                          0.0091130               0.2480
        19                          0.0818279               2.2267
        20                          0.0902593               2.4561
        21                          0.2640626               7.1855
        22                          0.2867437               7.8027
      -------------------------------------------------------------
                  HL-Gap            0.1322121 Eh            3.5977 eV
             Fermi-level           -0.5081999 Eh          -13.8288 eV

     #   Z          covCN         q      C6AA      α(0)
     1   7 N        2.648    -0.317    28.158     7.881
     2   6 C        2.730     0.270    22.442     7.756
     3   7 N        2.651    -0.194    25.218     7.458
     4   1 H        0.860     0.253     0.872     1.462
     5   1 H        0.860     0.240     0.922     1.505
     6   7 N        2.651    -0.194    25.218     7.458
     7   1 H        0.861     0.225     0.989     1.558
     8   1 H        0.861     0.225     0.989     1.558
     9   1 H        0.860     0.253     0.872     1.462
    10   1 H        0.860     0.240     0.922     1.505

 Mol. C6AA /au·bohr⁶  :        667.004204
 Mol. C8AA /au·bohr⁸  :      13805.965055
 Mol. α(0) /au        :         39.602692


Wiberg/Mayer (AO) data.
largest (>0.10) Wiberg bond orders for each atom

 ---------------------------------------------------------------------------
     #   Z sym  total        # sym  WBO       # sym  WBO       # sym  WBO
 ---------------------------------------------------------------------------
     1   7 N    3.058 --     2 C    1.113     7 H    0.907     8 H    0.907
     2   6 C    3.967 --     3 N    1.415     6 N    1.415     1 N    1.113
     3   7 N    3.502 --     2 C    1.415     5 H    0.919     4 H    0.917
                             6 N    0.163
     4   1 H    0.936 --     3 N    0.917
     5   1 H    0.942 --     3 N    0.919
     6   7 N    3.502 --     2 C    1.415    10 H    0.919     9 H    0.917
                             3 N    0.163
     7   1 H    0.950 --     1 N    0.907
     8   1 H    0.950 --     1 N    0.907
     9   1 H    0.936 --     6 N    0.917
    10   1 H    0.942 --     6 N    0.919
 ---------------------------------------------------------------------------

Topologies differ in total number of bonds
Writing topology from bond orders to xtbtopo.mol

molecular dipole:
                 x           y           z       tot (Debye)
 q only:        0.182      -0.374       0.053
   full:        0.201      -0.414       0.059       1.178
molecular quadrupole (traceless):
                xx          xy          yy          xz          yz          zz
 q only:        2.210      -0.007       3.260       3.354       0.394      -5.471
  q+dip:        2.276      -0.416       4.072       3.745       0.314      -6.348
   full:        2.005      -0.499       3.818       3.393       0.247      -5.823

           -------------------------------------------------
          |                Geometry Summary                 |
           -------------------------------------------------

      molecular mass/u    :       60.0784900
   center of mass at/Å    :        0.0034024      -0.0070050       0.0009888
  moments of inertia/u·Å² :        0.4953490E+02   0.5212207E+02   0.9870550E+02
rotational constants/cm⁻¹ :        0.3403183E+00   0.3234260E+00   0.1707872E+00

 * 9 selected distances

     #   Z          #   Z                                           value/Å
     1   7 N        2   6 C                                       1.3662448 (max)
     2   6 C        3   7 N                                       1.3182408
     3   7 N        4   1 H                                       1.0107936
     3   7 N        5   1 H                                       1.0109177
     2   6 C        6   7 N                                       1.3182432
     1   7 N        7   1 H                                       1.0026642
     1   7 N        8   1 H                                       1.0026612 (min)
     6   7 N        9   1 H                                       1.0107925
     6   7 N       10   1 H                                       1.0109188

 * 2 distinct bonds (by element types)

   Z      Z             #   av. dist./Å        max./Å        min./Å
   1 H    7 N           6     1.0081246     1.0109188     1.0026612
   6 C    7 N           3     1.3342430     1.3662448     1.3182408


optimized geometry written to: xtbopt.xyz


           -------------------------------------------------
          | TOTAL ENERGY              -13.532258753458 Eh   |
          | GRADIENT NORM               0.000769876441 Eh/α |
          | HOMO-LUMO GAP               3.597673453265 eV   |
           -------------------------------------------------

------------------------------------------------------------------------
 * finished run on 2022/11/03 at 12:40:06.713     
------------------------------------------------------------------------
 total:
 * wall-time:     0 d,  0 h,  0 min,  2.006 sec
 *  cpu-time:     0 d,  0 h,  0 min, 15.938 sec
 * ratio c/w:     7.945 speedup
 SCF:
 * wall-time:     0 d,  0 h,  0 min,  0.213 sec
 *  cpu-time:     0 d,  0 h,  0 min,  1.683 sec
 * ratio c/w:     7.882 speedup
 ANC optimizer:
 * wall-time:     0 d,  0 h,  0 min,  1.729 sec
 *  cpu-time:     0 d,  0 h,  0 min, 13.746 sec
 * ratio c/w:     7.952 speedup

