10
 energy: -13.532258753458 gnorm: 0.000769876441 xtb: 6.5.1 (b24c23e)
N           -0.57986593274710        1.19442138360032       -0.16982769644138
C            0.01199762402415       -0.02470849060070        0.00350573487232
N            1.24588709172787       -0.08650630149714        0.46334960760174
H            1.74092596290837        0.76701782528642        0.68275011067305
H            1.73519693231498       -0.95852744590116        0.61204173036519
N           -0.66045409697536       -1.11937730756026       -0.29191561467858
H           -1.10630441998004        1.62914764973201        0.56448205010868
H           -0.50634544487443        1.69263190191787       -1.03684001027806
H           -1.60546833757893       -1.04613422313378       -0.64303486713225
H           -0.27552937881952       -2.04795900184359       -0.18455804509071
