      -----------------------------------------------------------      
     |                   =====================                   |     
     |                           x T B                           |     
     |                   =====================                   |     
     |                         S. Grimme                         |     
     |          Mulliken Center for Theoretical Chemistry        |     
     |                    University of Bonn                     |     
      -----------------------------------------------------------      

   * xtb version 6.5.1 (b24c23e) compiled by 'conda@728c89f4b128' on 2022-07-12

   xtb is free software: you can redistribute it and/or modify it under
   the terms of the GNU Lesser General Public License as published by
   the Free Software Foundation, either version 3 of the License, or
   (at your option) any later version.
   
   xtb is distributed in the hope that it will be useful,
   but WITHOUT ANY WARRANTY; without even the implied warranty of
   MERCHANTABILITY or FITNESS FOR A PARTICULAR PURPOSE.  See the
   GNU Lesser General Public License for more details.
   
   Cite this work as:
   * C. Bannwarth, E. Caldeweyher, S. Ehlert, A. Hansen, P. Pracht,
     J. Seibert, S. Spicher, S. Grimme, WIREs Comput. Mol. Sci., 2020, 11,
     e01493. DOI: 10.1002/wcms.1493
   
   for GFN2-xTB:
   * C. Bannwarth, S. Ehlert and S. Grimme., J. Chem. Theory Comput., 2019,
     15, 1652-1671. DOI: 10.1021/acs.jctc.8b01176
   for GFN1-xTB:
   * S. Grimme, C. Bannwarth, P. Shushkov, J. Chem. Theory Comput., 2017,
     13, 1989-2009. DOI: 10.1021/acs.jctc.7b00118
   for GFN0-xTB:
   * P. Pracht, E. Caldeweyher, S. Ehlert, S. Grimme, ChemRxiv, 2019, preprint.
     DOI: 10.26434/chemrxiv.8326202.v1
   for GFN-FF:
   * S. Spicher and S. Grimme, Angew. Chem. Int. Ed., 2020, 59, 15665-15673.
     DOI: 10.1002/anie.202004239
   
   for ALPB and GBSA implicit solvation:
   * S. Ehlert, M. Stahn, S. Spicher, S. Grimme, J. Chem. Theory Comput.,
     2021, 17, 4250-4261. DOI: 10.1021/acs.jctc.1c00471
   
   for DFT-D4:
   * E. Caldeweyher, C. Bannwarth and S. Grimme, J. Chem. Phys., 2017,
     147, 034112. DOI: 10.1063/1.4993215
   * E. Caldeweyher, S. Ehlert, A. Hansen, H. Neugebauer, S. Spicher,
     C. Bannwarth and S. Grimme, J. Chem. Phys., 2019, 150, 154122.
     DOI: 10.1063/1.5090222
   * E. Caldeweyher, J.-M. Mewes, S. Ehlert and S. Grimme, Phys. Chem. Chem. Phys.
     2020, 22, 8499-8512. DOI: 10.1039/D0CP00502A
   
   for sTDA-xTB:
   * S. Grimme and C. Bannwarth, J. Chem. Phys., 2016, 145, 054103.
     DOI: 10.1063/1.4959605
   
   in the mass-spec context:
   * V. Asgeirsson, C. Bauer and S. Grimme, Chem. Sci., 2017, 8, 4879.
     DOI: 10.1039/c7sc00601b
   * J. Koopman and S. Grimme, ACS Omega 2019, 4, 12, 15120-15133.
     DOI: 10.1021/acsomega.9b02011
   
   for metadynamics refer to:
   * S. Grimme, J. Chem. Theory Comput., 2019, 155, 2847-2862
     DOI: 10.1021/acs.jctc.9b00143
   
   for SPH calculations refer to:
   * S. Spicher and S. Grimme, J. Chem. Theory Comput., 2021, 17, 1701-1714
     DOI: 10.1021/acs.jctc.0c01306
   
   with help from (in alphabetical order)
   P. Atkinson, C. Bannwarth, F. Bohle, G. Brandenburg, E. Caldeweyher
   M. Checinski, S. Dohm, S. Ehlert, S. Ehrlich, I. Gerasimov, C. Hölzer
   A. Katbashev, J. Koopman, C. Lavigne, S. Lehtola, F. März, M. Müller,
   F. Musil, H. Neugebauer, J. Pisarek, C. Plett, P. Pracht, F. Pultar,
   J. Seibert, P. Shushkov, S. Spicher, M. Stahn, M. Steiner, T. Strunk,
   J. Stückrath, T. Rose, and J. Unsleber
   
 * started run on 2022/11/03 at 12:40:44.915     

           -------------------------------------------------
          |                Calculation Setup                |
           -------------------------------------------------

          program call               : /home/chase/psi4conda/envs/xtbenv/bin/xtb --gfn 2 --chrg 1 --uhf 0 guan-opt-1-2-270_preQMOPTprefit_xyzformat.xyz --opt --input xtb-opt-1-2-270_constr.txt
          coordinate file            : guan-opt-1-2-270_preQMOPTprefit_xyzformat.xyz
          omp threads                :                     8

   ID    Z sym.   atoms
    1    7 N      1, 3, 6
    2    6 C      2
    3    1 H      4, 5, 7-10
constraining angle 7 1 2 6 to  269.9993991°, actual value:  -90.0006009°
constraining angle 8 1 2 6 to   90.0003822°, actual value:   90.0003822°
constraining angle 9 6 2 1 to  359.9998806°, actual value:   -0.0001194°
constraining angle 10 6 2 1 to  179.9989850°, actual value:  179.9989850°
constraining angle 4 3 2 1 to    0.0010995°, actual value:    0.0010995°
constraining angle 5 3 2 1 to  180.0005103°, actual value: -179.9994897°

           -------------------------------------------------
          |                 G F N 2 - x T B                 |
           -------------------------------------------------

        Reference                      10.1021/acs.jctc.8b01176
      * Hamiltonian:
        H0-scaling (s, p, d)           1.850000    2.230000    2.230000
        zeta-weighting                 0.500000
      * Dispersion:
        s8                             2.700000
        a1                             0.520000
        a2                             5.000000
        s9                             5.000000
      * Repulsion:
        kExp                           1.500000    1.000000
        rExp                           1.000000
      * Coulomb:
        alpha                          2.000000
        third order                    shell-resolved
        anisotropic                    true
        a3                             3.000000
        a5                             4.000000
        cn-shift                       1.200000
        cn-exp                         4.000000
        max-rad                        5.000000

q/qsh data taken from xtbrestart
CAMM data taken from xtbrestart

          ...................................................
          :                      SETUP                      :
          :.................................................:
          :  # basis functions                  22          :
          :  # atomic orbitals                  22          :
          :  # shells                           14          :
          :  # electrons                        24          :
          :  max. iterations                   250          :
          :  Hamiltonian                  GFN2-xTB          :
          :  restarted?                       true          :
          :  GBSA solvation                  false          :
          :  PC potential                    false          :
          :  electronic temp.          300.0000000     K    :
          :  accuracy                    1.0000000          :
          :  -> integral cutoff          0.2500000E+02      :
          :  -> integral neglect         0.1000000E-07      :
          :  -> SCF convergence          0.1000000E-05 Eh   :
          :  -> wf. convergence          0.1000000E-03 e    :
          :  Broyden damping             0.4000000          :
          ...................................................

 iter      E             dE          RMSdq      gap      omega  full diag
   1    -13.7176211 -0.137176E+02  0.772E-01    3.97       0.0  T
   2    -13.7183913 -0.770214E-03  0.407E-01    3.62       1.0  T
   3    -13.7184261 -0.347764E-04  0.128E-01    3.50       1.0  T
   4    -13.7184304 -0.429869E-05  0.222E-02    3.50       1.4  T
   5    -13.7184313 -0.951743E-06  0.104E-02    3.50       3.1  T
   6    -13.7184314 -0.591662E-07  0.190E-03    3.50      16.7  T
   7    -13.7184314 -0.110884E-07  0.677E-04    3.50      46.7  T
   8    -13.7184314 -0.921654E-09  0.174E-04    3.50     181.8  T

   *** convergence criteria satisfied after 8 iterations ***

         #    Occupation            Energy/Eh            Energy/eV
      -------------------------------------------------------------
         1        2.0000           -0.9029128             -24.5695
       ...           ...                  ...                  ...
         6        2.0000           -0.7606884             -20.6994
         7        2.0000           -0.7568513             -20.5950
         8        2.0000           -0.7231820             -19.6788
         9        2.0000           -0.7102790             -19.3277
        10        2.0000           -0.6834172             -18.5967
        11        2.0000           -0.6330096             -17.2251
        12        2.0000           -0.5769102             -15.6985 (HOMO)
        13                         -0.4481860             -12.1958 (LUMO)
        14                         -0.2302288              -6.2648
        15                         -0.1471728              -4.0048
        16                         -0.1378482              -3.7510
        17                         -0.0405837              -1.1043
       ...                                ...                  ...
        22                          0.2752742               7.4906
      -------------------------------------------------------------
                  HL-Gap            0.1287242 Eh            3.5028 eV
             Fermi-level           -0.5125481 Eh          -13.9471 eV

 SCC (total)                   0 d,  0 h,  0 min,  0.285 sec
 SCC setup                      ...        0 min,  0.007 sec (  2.561%)
 Dispersion                     ...        0 min,  0.009 sec (  3.145%)
 classical contributions        ...        0 min,  0.007 sec (  2.602%)
 integral evaluation            ...        0 min,  0.015 sec (  5.346%)
 iterations                     ...        0 min,  0.181 sec ( 63.522%)
 molecular gradient             ...        0 min,  0.065 sec ( 22.764%)
 printout                       ...        0 min,  0.000 sec (  0.053%)

         :::::::::::::::::::::::::::::::::::::::::::::::::::::
         ::                     SUMMARY                     ::
         :::::::::::::::::::::::::::::::::::::::::::::::::::::
         :: total energy             -13.530341243134 Eh    ::
         :: gradient norm              0.051087654277 Eh/a0 ::
         :: HOMO-LUMO gap              3.502763137147 eV    ::
         ::.................................................::
         :: SCC energy               -13.718431380208 Eh    ::
         :: -> isotropic ES            0.113760653945 Eh    ::
         :: -> anisotropic ES         -0.009589912009 Eh    ::
         :: -> anisotropic XC          0.011564689918 Eh    ::
         :: -> dispersion             -0.003406242977 Eh    ::
         :: repulsion energy           0.188087651006 Eh    ::
         :: add. restraining           0.000000000000 Eh    ::
         :: total charge               1.000000000000 e     ::
         :::::::::::::::::::::::::::::::::::::::::::::::::::::

      ----------------------------------------------------------- 
     |                   =====================                   |
     |                        A N C O P T                        |
     |                   =====================                   |
     |               Approximate Normal Coordinate               |
     |                Rational Function Optimizer                |
      ----------------------------------------------------------- 

          ...................................................
          :                      SETUP                      :
          :.................................................:
          :   optimization level            normal          :
          :   max. optcycles                   200          :
          :   ANC micro-cycles                  20          :
          :   degrees of freedom                24          :
          :.................................................:
          :   RF solver                   davidson          :
          :   write xtbopt.log                true          :
          :   linear?                        false          :
          :   energy convergence         0.5000000E-05 Eh   :
          :   grad. convergence          0.1000000E-02 Eh/α :
          :   maximium RF displ.         1.0000000          :
          :   Hlow (freq-cutoff)         0.1000000E-01      :
          :   Hmax (freq-cutoff)         5.0000000          :
          :   S6 in model hess.         20.0000000          :
          ...................................................

generating ANC from model Hessian ...
Using Lindh-Hessian (1995)
 Shifting diagonal of input Hessian by    0.0000000000000000     
 Lowest  eigenvalues of input Hessian
    0.000000    0.000000    0.000000    0.000000    0.000000    0.000000
    0.039530    0.040156    0.052604    0.137451    0.142710    0.180819
    0.182390    0.337625    0.357791    0.413832    0.752357    0.811336
 Highest eigenvalues
    2.119301    2.329708    7.625557   10.163839   10.577248   25.806762


........................................................................
.............................. CYCLE    1 ..............................
........................................................................
   1    -13.7184314 -0.137184E+02  0.374E-05    3.50       0.0  T
   2    -13.7184314 -0.398614E-11  0.170E-05    3.50    1858.8  T
   3    -13.7184314 -0.245137E-12  0.101E-05    3.50    3143.3  T
     SCC iter.                  ...        0 min,  0.065 sec
     gradient                   ...        0 min,  0.061 sec
 * total energy  :   -13.5303412 Eh     change       -0.2938627E-10 Eh
   gradient norm :     0.0510849 Eh/α   predicted     0.0000000E+00 (-100.00%)
   displ. norm   :     0.1102092 α      lambda       -0.2646598E-02
   maximum displ.:     0.0728094 α      in ANC's #6, #2, #4, ...

........................................................................
.............................. CYCLE    2 ..............................
........................................................................
   1    -13.7263371 -0.137263E+02  0.154E-01    3.66       0.0  T
   2    -13.7263732 -0.361103E-04  0.877E-02    3.60       1.0  T
   3    -13.7263744 -0.113442E-05  0.341E-02    3.58       1.0  T
   4    -13.7263757 -0.129737E-05  0.814E-03    3.59       3.9  T
   5    -13.7263761 -0.395496E-06  0.246E-03    3.59      12.8  T
   6    -13.7263761 -0.212894E-08  0.255E-04    3.59     123.8  T
   7    -13.7263761 -0.100139E-09  0.593E-05    3.59     533.0  T
     SCC iter.                  ...        0 min,  0.116 sec
     gradient                   ...        0 min,  0.042 sec
 * total energy  :   -13.5320236 Eh     change       -0.1682375E-02 Eh
   gradient norm :     0.0165391 Eh/α   predicted    -0.1339373E-02 ( -20.39%)
   displ. norm   :     0.0386540 α      lambda       -0.3328482E-03
   maximum displ.:     0.0308990 α      in ANC's #6, #4, #2, ...

........................................................................
.............................. CYCLE    3 ..............................
........................................................................
   1    -13.7286172 -0.137286E+02  0.584E-02    3.65       0.0  T
   2    -13.7286274 -0.101445E-04  0.319E-02    3.62       1.0  T
   3    -13.7286280 -0.634547E-06  0.172E-02    3.61       1.8  T
   4    -13.7286282 -0.182702E-06  0.452E-03    3.61       7.0  T
   5    -13.7286283 -0.792934E-07  0.119E-03    3.61      26.5  T
   6    -13.7286283 -0.429589E-09  0.130E-04    3.61     243.7  T
   7    -13.7286283 -0.178169E-10  0.317E-05    3.61     996.1  T
     SCC iter.                  ...        0 min,  0.109 sec
     gradient                   ...        0 min,  0.060 sec
 * total energy  :   -13.5322120 Eh     change       -0.1884076E-03 Eh
   gradient norm :     0.0036952 Eh/α   predicted    -0.1666730E-03 ( -11.54%)
   displ. norm   :     0.0276585 α      lambda       -0.4275034E-04
   maximum displ.:     0.0260052 α      in ANC's #2, #6, #10, ...

........................................................................
.............................. CYCLE    4 ..............................
........................................................................
   1    -13.7284406 -0.137284E+02  0.187E-02    3.61       0.0  T
   2    -13.7284419 -0.129495E-05  0.957E-03    3.61       3.3  T
   3    -13.7284420 -0.142311E-06  0.539E-03    3.60       5.9  T
   4    -13.7284420 -0.195172E-07  0.164E-03    3.60      19.3  T
   5    -13.7284420 -0.513040E-08  0.404E-04    3.60      78.3  T
   6    -13.7284420 -0.524043E-10  0.445E-05    3.60     710.5  T
     SCC iter.                  ...        0 min,  0.139 sec
     gradient                   ...        0 min,  0.044 sec
 * total energy  :   -13.5322434 Eh     change       -0.3135838E-04 Eh
   gradient norm :     0.0023602 Eh/α   predicted    -0.2138966E-04 ( -31.79%)
   displ. norm   :     0.0340093 α      lambda       -0.2688321E-04
   maximum displ.:     0.0329965 α      in ANC's #2, #6, #4, ...

........................................................................
.............................. CYCLE    5 ..............................
........................................................................
   1    -13.7280553 -0.137281E+02  0.198E-02    3.60       0.0  T
   2    -13.7280561 -0.790683E-06  0.102E-02    3.60       3.1  T
   3    -13.7280561 -0.803189E-07  0.538E-03    3.60       5.9  T
   4    -13.7280562 -0.402805E-07  0.111E-03    3.60      28.6  T
   5    -13.7280562 -0.244863E-08  0.335E-04    3.60      94.4  T
   6    -13.7280562 -0.339337E-10  0.395E-05    3.60     800.5  T
     SCC iter.                  ...        0 min,  0.078 sec
     gradient                   ...        0 min,  0.038 sec
 * total energy  :   -13.5322553 Eh     change       -0.1188823E-04 Eh
   gradient norm :     0.0106703 Eh/α   predicted    -0.1345687E-04 (  13.19%)
   displ. norm   :     0.0232362 α      lambda       -0.1909679E-04
   maximum displ.:     0.0225153 α      in ANC's #2, #4, #6, ...

........................................................................
.............................. CYCLE    6 ..............................
........................................................................
   1    -13.7278145 -0.137278E+02  0.131E-02    3.59       0.0  T
   2    -13.7278147 -0.192919E-06  0.690E-03    3.59       4.6  T
   3    -13.7278147 -0.103583E-07  0.329E-03    3.59       9.6  T
   4    -13.7278148 -0.248291E-07  0.495E-04    3.59      63.9  T
   5    -13.7278148 -0.406068E-09  0.182E-04    3.59     173.3  T
     SCC iter.                  ...        0 min,  0.110 sec
     gradient                   ...        0 min,  0.034 sec
 * total energy  :   -13.5322389 Eh     change        0.1641563E-04 Eh
   gradient norm :     0.0279310 Eh/α   predicted    -0.9554575E-05 (-158.20%)
   displ. norm   :     0.0186802 α      lambda       -0.3882104E-04
   maximum displ.:     0.0181549 α      in ANC's #2, #6, #10, ...

........................................................................
.............................. CYCLE    7 ..............................
........................................................................
   1    -13.7280934 -0.137281E+02  0.112E-02    3.59       0.0  T
   2    -13.7280937 -0.243097E-06  0.575E-03    3.60       5.5  T
   3    -13.7280937 -0.239932E-07  0.302E-03    3.60      10.5  T
   4    -13.7280937 -0.131490E-07  0.618E-04    3.60      51.1  T
   5    -13.7280937 -0.758888E-09  0.188E-04    3.60     168.0  T
     SCC iter.                  ...        0 min,  0.109 sec
     gradient                   ...        0 min,  0.064 sec
 * total energy  :   -13.5322586 Eh     change       -0.1969907E-04 Eh
   gradient norm :     0.0006227 Eh/α   predicted    -0.1941775E-04 (  -1.43%)
   displ. norm   :     0.0011008 α      lambda       -0.2097773E-06
   maximum displ.:     0.0006303 α      in ANC's #4, #2, #9, ...

........................................................................
.............................. CYCLE    8 ..............................
........................................................................
   1    -13.7281199 -0.137281E+02  0.220E-03    3.60       0.0  T
   2    -13.7281199 -0.450106E-08  0.126E-03    3.60      25.1  T
   3    -13.7281199 -0.699583E-10  0.408E-04    3.60      77.6  T
   4    -13.7281199 -0.332726E-09  0.119E-04    3.60     266.3  T
     SCC iter.                  ...        0 min,  0.050 sec
     gradient                   ...        0 min,  0.034 sec
 * total energy  :   -13.5322588 Eh     change       -0.2054208E-06 Eh
   gradient norm :     0.0003123 Eh/α   predicted    -0.1052163E-06 ( -48.78%)
   displ. norm   :     0.0009803 α      lambda       -0.5915788E-07
   maximum displ.:     0.0006836 α      in ANC's #2, #6, #4, ...

   *** GEOMETRY OPTIMIZATION CONVERGED AFTER 8 ITERATIONS ***

------------------------------------------------------------------------
 total energy gain   :        -0.0019175 Eh       -1.2033 kcal/mol
 total RMSD          :         0.0451109 a0        0.0239 Å
 total power (kW/mol):        -0.6293052 (step)   -3.3085 (real)
------------------------------------------------------------------------

 ANCopt (total)                0 d,  0 h,  0 min,  1.522 sec
 optimizer setup                ...        0 min,  0.000 sec (  0.005%)
 model hessian                  ...        0 min,  0.005 sec (  0.333%)
 ANC generation                 ...        0 min,  0.000 sec (  0.014%)
 coordinate transformation      ...        0 min,  0.000 sec (  0.002%)
 single point calculation       ...        0 min,  1.480 sec ( 97.264%)
 optimization log               ...        0 min,  0.001 sec (  0.045%)
 hessian update                 ...        0 min,  0.034 sec (  2.261%)
 rational function              ...        0 min,  0.001 sec (  0.050%)

================
 final structure:
================
10
 xtb: 6.5.1 (b24c23e)
N           -0.57857418644349        1.19423902056122       -0.17590407369850
C            0.01194481057146       -0.02464812015244        0.00363113691022
N            1.32178965607793       -0.09736559868164        0.13339852450777
H            1.87536354626146        0.74767709267990        0.09888012176268
H            1.81418632976481       -0.96987640752809        0.26841542106359
N           -0.73768087202791       -1.10826669411505        0.04418079801810
H           -0.72535872152642        1.57414485535678       -1.09212861014704
H           -0.88371141103006        1.74711490494797        0.60291244317464
H           -1.74004473115568       -1.02696820794515       -0.05775013754741
H           -0.35787641049210       -2.03604483512351        0.17431737595595

 Bond Distances (Angstroems)
 ---------------------------
N1-C2=1.3662         N1-H7=1.0027         N1-H8=1.0027         C2-N1=1.3662         C2-N3=1.3183         C2-N6=1.3183         
N3-C2=1.3183         N3-H4=1.0108         N3-H5=1.0109         H4-N3=1.0108         H5-N3=1.0109         N6-C2=1.3183         
N6-H9=1.0108         N6-H10=1.0109        H7-N1=1.0027         H8-N1=1.0027         H9-N6=1.0108         H10-N6=1.0109        
 N  H  Rav=1.0081 sigma=0.0039  Rmin=1.0027  Rmax=1.0109     6
 N  C  Rav=1.3343 sigma=0.0226  Rmin=1.3183  Rmax=1.3662     3

 selected bond angles (degree)
 --------------------
H7-N1-C2=121.42                H8-N1-C2=121.43                H8-N1-H7=117.15                N3-C2-N1=119.45                
N6-C2-N1=119.45                N6-C2-N3=121.11                H4-N3-C2=119.65                H5-N3-C2=123.01                
H5-N3-H4=117.35                H9-N6-C2=119.65                H10-N6-C2=123.01               H10-N6-H9=117.35               

 selected dihedral angles (degree)
 ---------------------------------
N3-C2-N1-H7= 90.00            N3-C2-N1-H8=270.00            N6-C2-N1-H7=270.00            N6-C2-N1-H8= 90.00            
H4-N3-C2-N1=  0.00            H4-N3-C2-N6=180.00            H5-N3-C2-N1=180.00            H5-N3-C2-N6=  0.00            
H9-N6-C2-N1=  0.00            H9-N6-C2-N3=180.00            H10-N6-C2-N1=180.00           H10-N6-C2-N3=  0.00           
           -------------------------------------------------
          |                Final Singlepoint                |
           -------------------------------------------------

          ...................................................
          :                      SETUP                      :
          :.................................................:
          :  # basis functions                  22          :
          :  # atomic orbitals                  22          :
          :  # shells                           14          :
          :  # electrons                        24          :
          :  max. iterations                   250          :
          :  Hamiltonian                  GFN2-xTB          :
          :  restarted?                      false          :
          :  GBSA solvation                  false          :
          :  PC potential                    false          :
          :  electronic temp.          300.0000000     K    :
          :  accuracy                    1.0000000          :
          :  -> integral cutoff          0.2500000E+02      :
          :  -> integral neglect         0.1000000E-07      :
          :  -> SCF convergence          0.1000000E-05 Eh   :
          :  -> wf. convergence          0.1000000E-03 e    :
          :  Broyden damping             0.4000000          :
          ...................................................

 iter      E             dE          RMSdq      gap      omega  full diag
   1    -13.7281199 -0.137281E+02  0.352E-05    3.60       0.0  T
   2    -13.7281199 -0.195399E-12  0.208E-05    3.60    1522.5  T
   3    -13.7281199 -0.230926E-13  0.300E-06    3.60   10549.5  T

   *** convergence criteria satisfied after 3 iterations ***

         #    Occupation            Energy/Eh            Energy/eV
      -------------------------------------------------------------
         1        2.0000           -0.9083743             -24.7181
       ...           ...                  ...                  ...
         6        2.0000           -0.7627349             -20.7551
         7        2.0000           -0.7586477             -20.6439
         8        2.0000           -0.7249481             -19.7268
         9        2.0000           -0.7099667             -19.3192
        10        2.0000           -0.6863145             -18.6756
        11        2.0000           -0.6365767             -17.3221
        12        2.0000           -0.5743048             -15.6276 (HOMO)
        13                         -0.4421013             -12.0302 (LUMO)
        14                         -0.2251312              -6.1261
        15                         -0.1465334              -3.9874
        16                         -0.1366232              -3.7177
        17                         -0.0346303              -0.9423
       ...                                ...                  ...
        22                          0.2866621               7.8005
      -------------------------------------------------------------
                  HL-Gap            0.1322035 Eh            3.5974 eV
             Fermi-level           -0.5082030 Eh          -13.8289 eV

 SCC (total)                   0 d,  0 h,  0 min,  0.122 sec
 SCC setup                      ...        0 min,  0.002 sec (  1.964%)
 Dispersion                     ...        0 min,  0.007 sec (  6.087%)
 classical contributions        ...        0 min,  0.004 sec (  3.048%)
 integral evaluation            ...        0 min,  0.011 sec (  8.843%)
 iterations                     ...        0 min,  0.055 sec ( 45.045%)
 molecular gradient             ...        0 min,  0.042 sec ( 34.898%)
 printout                       ...        0 min,  0.000 sec (  0.103%)

         :::::::::::::::::::::::::::::::::::::::::::::::::::::
         ::                     SUMMARY                     ::
         :::::::::::::::::::::::::::::::::::::::::::::::::::::
         :: total energy             -13.532258760841 Eh    ::
         :: gradient norm              0.000313042457 Eh/a0 ::
         :: HOMO-LUMO gap              3.597440189064 eV    ::
         ::.................................................::
         :: SCC energy               -13.728119871616 Eh    ::
         :: -> isotropic ES            0.114650968680 Eh    ::
         :: -> anisotropic ES         -0.009736649286 Eh    ::
         :: -> anisotropic XC          0.011445913153 Eh    ::
         :: -> dispersion             -0.003412845762 Eh    ::
         :: repulsion energy           0.195858728439 Eh    ::
         :: add. restraining           0.000000002156 Eh    ::
         :: total charge               1.000000000000 e     ::
         :::::::::::::::::::::::::::::::::::::::::::::::::::::

           -------------------------------------------------
          |                Property Printout                |
           -------------------------------------------------

    * Orbital Energies and Occupations

         #    Occupation            Energy/Eh            Energy/eV
      -------------------------------------------------------------
         1        2.0000           -0.9083743             -24.7181
         2        2.0000           -0.8610892             -23.4314
         3        2.0000           -0.8453940             -23.0043
         4        2.0000           -0.7900991             -21.4997
         5        2.0000           -0.7706555             -20.9706
         6        2.0000           -0.7627349             -20.7551
         7        2.0000           -0.7586477             -20.6439
         8        2.0000           -0.7249481             -19.7268
         9        2.0000           -0.7099667             -19.3192
        10        2.0000           -0.6863145             -18.6756
        11        2.0000           -0.6365767             -17.3221
        12        2.0000           -0.5743048             -15.6276 (HOMO)
        13                         -0.4421013             -12.0302 (LUMO)
        14                         -0.2251312              -6.1261
        15                         -0.1465334              -3.9874
        16                         -0.1366232              -3.7177
        17                         -0.0346303              -0.9423
        18                          0.0091026               0.2477
        19                          0.0818073               2.2261
        20                          0.0902472               2.4558
        21                          0.2640740               7.1858
        22                          0.2866621               7.8005
      -------------------------------------------------------------
                  HL-Gap            0.1322035 Eh            3.5974 eV
             Fermi-level           -0.5082030 Eh          -13.8289 eV

     #   Z          covCN         q      C6AA      α(0)
     1   7 N        2.648    -0.317    28.157     7.881
     2   6 C        2.730     0.270    22.442     7.756
     3   7 N        2.651    -0.194    25.218     7.458
     4   1 H        0.860     0.253     0.872     1.462
     5   1 H        0.860     0.240     0.922     1.505
     6   7 N        2.651    -0.194    25.218     7.458
     7   1 H        0.861     0.225     0.989     1.558
     8   1 H        0.861     0.225     0.989     1.558
     9   1 H        0.860     0.253     0.872     1.462
    10   1 H        0.860     0.240     0.922     1.505

 Mol. C6AA /au·bohr⁶  :        667.003987
 Mol. C8AA /au·bohr⁸  :      13805.949851
 Mol. α(0) /au        :         39.602688


Wiberg/Mayer (AO) data.
largest (>0.10) Wiberg bond orders for each atom

 ---------------------------------------------------------------------------
     #   Z sym  total        # sym  WBO       # sym  WBO       # sym  WBO
 ---------------------------------------------------------------------------
     1   7 N    3.058 --     2 C    1.113     8 H    0.907     7 H    0.907
     2   6 C    3.967 --     6 N    1.415     3 N    1.415     1 N    1.113
     3   7 N    3.502 --     2 C    1.415     5 H    0.919     4 H    0.917
                             6 N    0.163
     4   1 H    0.936 --     3 N    0.917
     5   1 H    0.942 --     3 N    0.919
     6   7 N    3.502 --     2 C    1.415    10 H    0.919     9 H    0.917
                             3 N    0.163
     7   1 H    0.950 --     1 N    0.907
     8   1 H    0.950 --     1 N    0.907
     9   1 H    0.936 --     6 N    0.917
    10   1 H    0.942 --     6 N    0.919
 ---------------------------------------------------------------------------

Topologies differ in total number of bonds
Writing topology from bond orders to xtbtopo.mol

molecular dipole:
                 x           y           z       tot (Debye)
 q only:        0.181      -0.374       0.055
   full:        0.200      -0.413       0.061       1.178
molecular quadrupole (traceless):
                xx          xy          yy          xz          yz          zz
 q only:        3.386       0.222       3.170       0.924      -0.991      -6.556
  q+dip:        3.568      -0.163       3.973       1.075      -1.213      -7.540
   full:        3.169      -0.270       3.728       0.987      -1.130      -6.896

           -------------------------------------------------
          |                Geometry Summary                 |
           -------------------------------------------------

      molecular mass/u    :       60.0784900
   center of mass at/Å    :        0.0033857      -0.0069790       0.0010267
  moments of inertia/u·Å² :        0.4953451E+02   0.5212507E+02   0.9870817E+02
rotational constants/cm⁻¹ :        0.3403210E+00   0.3234074E+00   0.1707826E+00

 * 9 selected distances

     #   Z          #   Z                                           value/Å
     1   7 N        2   6 C                                       1.3662473 (max)
     2   6 C        3   7 N                                       1.3182645
     3   7 N        4   1 H                                       1.0108080
     3   7 N        5   1 H                                       1.0109201
     2   6 C        6   7 N                                       1.3182612
     1   7 N        7   1 H                                       1.0026673
     1   7 N        8   1 H                                       1.0026644 (min)
     6   7 N        9   1 H                                       1.0108080
     6   7 N       10   1 H                                       1.0109201

 * 2 distinct bonds (by element types)

   Z      Z             #   av. dist./Å        max./Å        min./Å
   1 H    7 N           6     1.0081313     1.0109201     1.0026644
   6 C    7 N           3     1.3342577     1.3662473     1.3182612


optimized geometry written to: xtbopt.xyz


           -------------------------------------------------
          | TOTAL ENERGY              -13.532258760841 Eh   |
          | GRADIENT NORM               0.000313042457 Eh/α |
          | HOMO-LUMO GAP               3.597440189064 eV   |
           -------------------------------------------------

------------------------------------------------------------------------
 * finished run on 2022/11/03 at 12:40:46.898     
------------------------------------------------------------------------
 total:
 * wall-time:     0 d,  0 h,  0 min,  1.983 sec
 *  cpu-time:     0 d,  0 h,  0 min, 15.767 sec
 * ratio c/w:     7.949 speedup
 SCF:
 * wall-time:     0 d,  0 h,  0 min,  0.286 sec
 *  cpu-time:     0 d,  0 h,  0 min,  2.277 sec
 * ratio c/w:     7.973 speedup
 ANC optimizer:
 * wall-time:     0 d,  0 h,  0 min,  1.644 sec
 *  cpu-time:     0 d,  0 h,  0 min, 13.065 sec
 * ratio c/w:     7.946 speedup

