2022-11-03:12:41:49,526 INFO     [psi4.driver.task_planner:266] PLANNING Atomic:  keywords={'FREEZE_CORE': 'TRUE', 'function_kwargs': {}}
2022-11-03:12:41:49,530 INFO     [psi4.driver.driver:499] Compute energy(): method=wb97x-d, basis=6-311+g*, molecule=default, nre=133.52350300946736
2022-11-03:12:41:56,739 INFO     [psi4.driver.driver:502] Return energy(): -205.73395190170015

    A. Alenaizan, A. M. James, S. Lehtola, J. P. Misiewicz, M. Scheurer,
    R. A. Shaw, J. B. Schriber, Y. Xie, Z. L. Glick, D. A. Sirianni,
    J. S. O'Brien, J. M. Waldrop, A. Kumar, E. G. Hohenstein,
    B. P. Pritchard, B. R. Brooks, H. F. Schaefer III, A. Yu. Sokolov,
    K. Patkowski, A. E. DePrince III, U. Bozkaya, R. A. King,
    F. A. Evangelista, J. M. Turney, T. D. Crawford, C. D. Sherrill,
    J. Chem. Phys. 152(18) 184108 (2020). https://doi.org/10.1063/5.0006002

                            Additional Code Authors
    E. T. Seidl, C. L. Janssen, E. F. Valeev, M. L. Leininger,
    J. F. Gonthier, R. M. Richard, H. R. McAlexander, M. Saitow, X. Wang,
    P. Verma, M. H. Lechner, and A. Jiang

             Previous Authors, Complete List of Code Contributors,
                       and Citations for Specific Modules
    https://github.com/psi4/psi4/blob/master/codemeta.json
    https://github.com/psi4/psi4/graphs/contributors
    http://psicode.org/psi4manual/master/introduction.html#citing-psifour

    -----------------------------------------------------------------------


    Psi4 started on: Thursday, 03 November 2022 12:41PM

    Process ID: 6985
    Host:       DESKTOP-26BCFJT
    PSIDATADIR: /home/chase/psi4conda/share/psi4
    Memory:     500.0 MiB
    Threads:    1
    
  ==> Input File <==

--------------------------------------------------------------------------
molecule { 
1 1
 N   -0.573380    1.189075   -0.196384
 C    0.011937   -0.019062   -0.051934
 N    1.311273   -0.085213    0.197279
 H    1.858847    0.758515    0.277752
 H    1.793218   -0.963802    0.313826
 N   -0.732009   -1.113579   -0.019353
 H   -1.130462    1.409117   -1.003270
 H   -0.470956    1.907728    0.498032
 H   -1.735495   -1.048576   -0.102600
 H   -0.332934   -2.034197    0.086605
}
memory 1GB
set_num_threads(2)
psi4_io.set_default_path("/home/chase/temp/Psi4-guan")
set freeze_core True
E, wfn = energy('wb97x-d/6-311+G*',return_wfn=True)
oeprop(wfn,"WIBERG_LOWDIN_INDICES")
clean()
--------------------------------------------------------------------------

  Memory set to 953.674 MiB by Python driver.
  Threads set to 2 by Python driver.

Scratch directory: /home/chase/temp/Psi4-guan/

*** tstart() called on DESKTOP-26BCFJT
*** at Thu Nov  3 12:41:49 2022

   => Loading Basis Set <=

    Name: 6-311+G*
    Role: ORBITAL
    Keyword: BASIS
    atoms 1, 3, 6   entry N          line   151 file /home/chase/psi4conda/share/psi4/basis/6-311pgs.gbs 
    atoms 2         entry C          line   130 file /home/chase/psi4conda/share/psi4/basis/6-311pgs.gbs 
    atoms 4-5, 7-10 entry H          line    47 file /home/chase/psi4conda/share/psi4/basis/6-311pgs.gbs 

   => WB97X-D: Empirical Dispersion <=

    Chai and Head-Gordon Dispersion Correction
    Chai, J.-D.; Head-Gordon, M. (2010), J. Chem. Phys., 132: 6615-6620

        s6 =       1.000000


         ---------------------------------------------------------
                                   SCF
               by Justin Turney, Rob Parrish, Andy Simmonett
                          and Daniel G. A. Smith
                              RKS Reference
                        2 Threads,    953 MiB Core
         ---------------------------------------------------------

  ==> Geometry <==

    Molecular point group: c1
    Full point group: C1

    Geometry (in Angstrom), charge = 1, multiplicity = 1:

       Center              X                  Y                   Z               Mass       
    ------------   -----------------  -----------------  -----------------  -----------------
         N           -0.576838710988     1.194666459033    -0.182883617636    14.003074004430
         C            0.008478289012    -0.013470540967    -0.038433617636    12.000000000000
         N            1.307814289012    -0.079621540967     0.210779382364    14.003074004430
         H            1.855388289012     0.764106459033     0.291252382364     1.007825032230
         H            1.789759289012    -0.958210540967     0.327326382364     1.007825032230
         N           -0.735467710988    -1.107987540967    -0.005852617636    14.003074004430
         H           -1.133920710988     1.414708459033    -0.989769617636     1.007825032230
         H           -0.474414710988     1.913319459033     0.511532382364     1.007825032230
         H           -1.738953710988    -1.042984540967    -0.089099617636     1.007825032230
         H           -0.336392710988    -2.028605540967     0.100105382364     1.007825032230

  Running in c1 symmetry.

  Rotational constants: A =      0.33999  B =      0.32837  C =      0.17059 [cm^-1]
  Rotational constants: A =  10192.75959  B =   9844.25402  C =   5114.13098 [MHz]
  Nuclear repulsion =  133.523503009467333

  Charge       = 1
  Multiplicity = 1
  Electrons    = 32
  Nalpha       = 16
  Nbeta        = 16

  ==> Algorithm <==

  SCF Algorithm Type is DF.
  DIIS enabled.
  MOM disabled.
  Fractional occupation disabled.
  Guess Type is SAD.
  Energy threshold   = 1.00e-06
  Density threshold  = 1.00e-06
  Integral threshold = 1.00e-12

  ==> Primary Basis <==

  Basis Set: 6-311+G*
    Blend: 6-311+G*
    Number of shells: 58
    Number of basis functions: 106
    Number of Cartesian functions: 110
    Spherical Harmonics?: true
    Max angular momentum: 2

  ==> DFT Potential <==

   => LibXC <=

    Version 5.1.5
    S. Lehtola, C. Steigemann, M. J. Oliveira, and M. A. Marques, SoftwareX 7, 1 (2018) (10.1016/j.softx.2017.11.002)

   => Composite Functional: WB97X-D <= 

    wB97X-D Hyb-GGA Exchange-Correlation Functional

    J.-D. Chai and M. Head-Gordon, Phys. Chem. Chem. Phys. 10, 6615 (2008) (10.1039/B810189B)

    Deriv               =              1
    GGA                 =           TRUE
    Meta                =          FALSE

    Exchange Hybrid     =           TRUE
    MP2 Hybrid          =          FALSE

   => Exchange-Correlation Functionals <=

    1.0000   wB97X-D range-separated functional

   => Exact (HF) Exchange <=

    0.7780            HF,LR [omega = 0.2000]
    0.2220               HF 

   => LibXC Density Thresholds  <==

    XC_HYB_GGA_XC_WB97X_D:  1.00E-14 

   => Molecular Quadrature <=

    Radial Scheme          =       TREUTLER
    Pruning Scheme         =           NONE
    Nuclear Scheme         =       TREUTLER

    Blocking Scheme        =         OCTREE
    BS radius alpha        =              1
    Pruning alpha          =              1
    Radial Points          =             75
    Spherical Points       =            302
    Total Points           =         216389
    Total Blocks           =           1639
    Max Points             =            256
    Max Functions          =            106
    Weights Tolerance      =       1.00E-15

   => Loading Basis Set <=

    Name: (6-311+G* AUX)
    Role: JKFIT
    Keyword: DF_BASIS_SCF
    atoms 1, 3, 6   entry N          line   262 file /home/chase/psi4conda/share/psi4/basis/heavy-aug-cc-pvtz-jkfit.gbs 
    atoms 2         entry C          line   200 file /home/chase/psi4conda/share/psi4/basis/heavy-aug-cc-pvtz-jkfit.gbs 
    atoms 4-5, 7-10 entry H          line   116 file /home/chase/psi4conda/share/psi4/basis/heavy-aug-cc-pvtz-jkfit.gbs 

  ==> Integral Setup <==

  DFHelper Memory: AOs need 0.154 GiB; user supplied 0.154 GiB. Using in-core AOs.

  ==> MemDFJK: Density-Fitted J/K Matrices <==

    J tasked:                   Yes
    K tasked:                   Yes
    wK tasked:                  Yes
    Omega:                2.000E-01
    OpenMP threads:               2
    Memory [MiB]:               157
    Algorithm:                 Core
    Schwarz Cutoff:           1E-12
    Mask sparsity (%):       0.4806
    Fitting Condition:        1E-10

   => Auxiliary Basis Set <=

  Basis Set: (6-311+G* AUX)
    Blend: HEAVY-AUG-CC-PVTZ-JKFIT
    Number of shells: 180
    Number of basis functions: 596
    Number of Cartesian functions: 734
    Spherical Harmonics?: true
    Max angular momentum: 4

  Cached 50.0% of DFT collocation blocks in 0.291 [GiB].

  Minimum eigenvalue in the overlap matrix is 1.0013305695E-03.
  Reciprocal condition number of the overlap matrix is 1.0934060561E-04.
    Using symmetric orthogonalization.

  ==> Pre-Iterations <==

  SCF Guess: Superposition of Atomic Densities via on-the-fly atomic UHF (no occupation information).

   -------------------------
    Irrep   Nso     Nmo    
   -------------------------
     A        106     106 
   -------------------------
    Total     106     106
   -------------------------

  ==> Iterations <==

                           Total Energy        Delta E     RMS |[F,P]|

   @DF-RKS iter SAD:  -205.59020744443490   -2.05590e+02   0.00000e+00 
   @DF-RKS iter   1:  -205.46859381118605    1.21614e-01   7.81008e-03 DIIS/ADIIS
   @DF-RKS iter   2:  -205.55164785261417   -8.30540e-02   6.57435e-03 DIIS/ADIIS
   @DF-RKS iter   3:  -205.73317585268677   -1.81528e-01   3.57762e-04 DIIS/ADIIS
   @DF-RKS iter   4:  -205.73377509437807   -5.99242e-04   1.88697e-04 DIIS/ADIIS
   @DF-RKS iter   5:  -205.73394857692958   -1.73483e-04   2.08577e-05 DIIS
   @DF-RKS iter   6:  -205.73395168778694   -3.11086e-06   5.37306e-06 DIIS
   @DF-RKS iter   7:  -205.73395184821899   -1.60432e-07   2.83102e-06 DIIS
   @DF-RKS iter   8:  -205.73395190170015   -5.34812e-08   4.49126e-07 DIIS
  Energy and wave function converged.


  ==> Post-Iterations <==

   Electrons on quadrature grid:
      Ntotal   =   32.0000007308 ; deviation = 7.308e-07 

    Orbital Energies [Eh]
    ---------------------

    Doubly Occupied:                                                      

       1A    -14.678372     2A    -14.677152     3A    -14.643637  
       4A    -10.647703     5A     -1.331372     6A     -1.215431  
       7A     -1.198718     8A     -0.960378     9A     -0.890296  
      10A     -0.881042    11A     -0.819536    12A     -0.793809  
      13A     -0.785028    14A     -0.703751    15A     -0.574945  
      16A     -0.560771  

    Virtual:                                                              

      17A     -0.141358    18A     -0.100380    19A     -0.067225  
      20A     -0.062770    21A     -0.034221    22A     -0.025682  
      23A     -0.010985    24A      0.005125    25A      0.021540  
      26A      0.025132    27A      0.036236    28A      0.052317  
      29A      0.069204    30A      0.077769    31A      0.094121  
      32A      0.102400    33A      0.115912    34A      0.122849  
      35A      0.127019    36A      0.140041    37A      0.143865  
      38A      0.169124    39A      0.187546    40A      0.192675  
      41A      0.306894    42A      0.314426    43A      0.407550  
      44A      0.419645    45A      0.430433    46A      0.439524  
      47A      0.468777    48A      0.502369    49A      0.535230  
      50A      0.578390    51A      0.586141    52A      0.600369  
      53A      0.660720    54A      0.669565    55A      0.673843  
      56A      0.694444    57A      0.730304    58A      0.750249  
      59A      0.758379    60A      0.817846    61A      0.895811  
      62A      0.989889    63A      1.081539    64A      1.171308  
      65A      1.190968    66A      1.276348    67A      1.545923  
      68A      1.576827    69A      1.631747    70A      1.746096  
      71A      1.758134    72A      1.837358    73A      1.851716  
      74A      1.916052    75A      1.928625    76A      1.938512  
      77A      1.978013    78A      2.159576    79A      2.222290  
      80A      2.309177    81A      2.379330    82A      2.511741  
      83A      2.519431    84A      2.535857    85A      2.588385  
      86A      2.594579    87A      2.629231    88A      2.667752  
      89A      2.854382    90A      3.060717    91A      3.138219  
      92A      3.290955    93A      3.291738    94A      3.707003  
      95A      3.745026    96A      3.811935    97A      4.022016  
      98A      4.077614    99A      4.098070   100A      4.250095  
     101A      4.694304   102A      4.742131   103A     23.715704  
     104A     35.222950   105A     35.492718   106A     35.509853  

    Final Occupation by Irrep:
              A 
    DOCC [    16 ]

  @DF-RKS Final Energy:  -205.73395190170015

   => Energetics <=

    Nuclear Repulsion Energy =            133.5235030094673334
    One-Electron Energy =                -534.5806913728656582
    Two-Electron Energy =                 214.7908814430774669
    DFT Exchange-Correlation Energy =     -19.4647122345835939
    Empirical Dispersion Energy =          -0.0029327467956991
    VV10 Nonlocal Energy =                  0.0000000000000000
    Total Energy =                       -205.7339519017001521

Computation Completed


Properties will be evaluated at   0.000000,   0.000000,   0.000000 [a0]

Properties computed using the SCF density matrix


 Multipole Moments:

 ------------------------------------------------------------------------------------
     Multipole            Electronic (a.u.)      Nuclear  (a.u.)        Total (a.u.)
 ------------------------------------------------------------------------------------

 L = 1.  Multiply by 2.5417464519 to convert [e a0] to [Debye]
 Dipole X            :          0.1368250           -0.0361117            0.1007134
 Dipole Y            :         -0.2926580            0.0584155           -0.2342425
 Dipole Z            :         -0.0608943            0.1418194            0.0809251
 Magnitude           :                                                    0.2675100

 ------------------------------------------------------------------------------------

*** tstop() called on DESKTOP-26BCFJT at Thu Nov  3 12:41:56 2022
Module time:
	user time   =      13.69 seconds =       0.23 minutes
	system time =       0.41 seconds =       0.01 minutes
	total time  =          7 seconds =       0.12 minutes
Total time:
	user time   =      13.69 seconds =       0.23 minutes
	system time =       0.41 seconds =       0.01 minutes
	total time  =          7 seconds =       0.12 minutes


Properties will be evaluated at   0.000000,   0.000000,   0.000000 [a0]
OEProp: No title given, name of density matrix used for the following properties is 'SCF density'


  Wiberg Bond Indices using Orthogonal Lowdin Orbitals:

  Irrep: 1 Size: 10 x 10

                 1                   2                   3                   4                   5

    1     0.00000000000000     1.43985266421618     0.17223377139416     0.01546029629678     0.01224306942065
    2     1.43985266421618     0.00000000000000     1.60548099643204     0.05252135905001     0.05228487942955
    3     0.17223377139416     1.60548099643204     0.00000000000000     0.83004800885804     0.83359318721124
    4     0.01546029629678     0.05252135905001     0.83004800885804     0.00000000000000     0.01165335695503
    5     0.01224306942065     0.05228487942955     0.83359318721124     0.01165335695503     0.00000000000000
    6     0.16916146471866     1.61044935414596     0.22382360222980     0.00938602298150     0.01322642991973
    7     0.83090088428672     0.05096004861782     0.01319680474066     0.00026721483014     0.00036860709155
    8     0.82958463298733     0.05072648519951     0.01368473199441     0.00060672102312     0.00024936192530
    9     0.01567173818153     0.05231561904343     0.00931329880734     0.00067170360467     0.00050566058847
   10     0.01297162037618     0.05228536738311     0.01308614204530     0.00049248602682     0.00116777683588

                 6                   7                   8                   9                  10

    1     0.16916146471866     0.83090088428672     0.82958463298733     0.01567173818153     0.01297162037618
    2     1.61044935414596     0.05096004861782     0.05072648519951     0.05231561904343     0.05228536738311
    3     0.22382360222980     0.01319680474066     0.01368473199441     0.00931329880734     0.01308614204530
    4     0.00938602298150     0.00026721483014     0.00060672102312     0.00067170360467     0.00049248602682
    5     0.01322642991973     0.00036860709155     0.00024936192530     0.00050566058847     0.00116777683588
    6     0.00000000000000     0.01307001495598     0.01381528854079     0.82979458337401     0.83337905538558
    7     0.01307001495598     0.00000000000000     0.01081320321669     0.00044034211337     0.00017959827158
    8     0.01381528854079     0.01081320321669     0.00000000000000     0.00017941081290     0.00027835689939
    9     0.82979458337401     0.00044034211337     0.00017941081290     0.00000000000000     0.01169224566703
   10     0.83337905538558     0.00017959827158     0.00027835689939     0.01169224566703     0.00000000000000



  Atomic Valences: 

 #  #
 Irrep: 1
      1:    3.498080141878192
      2:    4.966876773517614
      3:    3.714460543712989
      4:    0.921107169626098
      5:    0.925292329377401
      6:    3.716105816252008
      7:    0.920196718124509
      8:    0.919938192599431
      9:    0.920584602192736
     10:    0.925532648890854


    Psi4 stopped on: Thursday, 03 November 2022 12:41PM
    Psi4 wall time for execution: 0:00:07.28

*** Psi4 exiting successfully. Buy a developer a beer!
