2022-11-03:12:41:41,324 INFO     [psi4.driver.task_planner:266] PLANNING Atomic:  keywords={'FREEZE_CORE': 'TRUE', 'function_kwargs': {}}
2022-11-03:12:41:41,327 INFO     [psi4.driver.driver:499] Compute energy(): method=wb97x-d, basis=6-311+g*, molecule=default, nre=133.8421657088236
2022-11-03:12:41:48,158 INFO     [psi4.driver.driver:502] Return energy(): -205.7449194504775
o,
    A. Alenaizan, A. M. James, S. Lehtola, J. P. Misiewicz, M. Scheurer,
    R. A. Shaw, J. B. Schriber, Y. Xie, Z. L. Glick, D. A. Sirianni,
    J. S. O'Brien, J. M. Waldrop, A. Kumar, E. G. Hohenstein,
    B. P. Pritchard, B. R. Brooks, H. F. Schaefer III, A. Yu. Sokolov,
    K. Patkowski, A. E. DePrince III, U. Bozkaya, R. A. King,
    F. A. Evangelista, J. M. Turney, T. D. Crawford, C. D. Sherrill,
    J. Chem. Phys. 152(18) 184108 (2020). https://doi.org/10.1063/5.0006002

                            Additional Code Authors
    E. T. Seidl, C. L. Janssen, E. F. Valeev, M. L. Leininger,
    J. F. Gonthier, R. M. Richard, H. R. McAlexander, M. Saitow, X. Wang,
    P. Verma, M. H. Lechner, and A. Jiang

             Previous Authors, Complete List of Code Contributors,
                       and Citations for Specific Modules
    https://github.com/psi4/psi4/blob/master/codemeta.json
    https://github.com/psi4/psi4/graphs/contributors
    http://psicode.org/psi4manual/master/introduction.html#citing-psifour

    -----------------------------------------------------------------------


    Psi4 started on: Thursday, 03 November 2022 12:41PM

    Process ID: 6967
    Host:       DESKTOP-26BCFJT
    PSIDATADIR: /home/chase/psi4conda/share/psi4
    Memory:     500.0 MiB
    Threads:    1
    
  ==> Input File <==

--------------------------------------------------------------------------
molecule { 
1 1
 N   -0.571966    1.187220   -0.178830
 C    0.017147   -0.000712   -0.033432
 N    1.196255   -0.082283    0.571216
 H    1.658622    0.739839    0.924399
 H    1.665459   -0.964852    0.696380
 N   -0.617409   -1.106122   -0.403999
 H   -0.371383    1.952882    0.442443
 H   -1.236475    1.356146   -0.915434
 H   -1.543999   -1.066168   -0.796965
 H   -0.196211   -2.015942   -0.305828
}
memory 1GB
set_num_threads(2)
psi4_io.set_default_path("/home/chase/temp/Psi4-guan")
set freeze_core True
E, wfn = energy('wb97x-d/6-311+G*',return_wfn=True)
oeprop(wfn,"WIBERG_LOWDIN_INDICES")
clean()
--------------------------------------------------------------------------

  Memory set to 953.674 MiB by Python driver.
  Threads set to 2 by Python driver.

Scratch directory: /home/chase/temp/Psi4-guan/

*** tstart() called on DESKTOP-26BCFJT
*** at Thu Nov  3 12:41:41 2022

   => Loading Basis Set <=

    Name: 6-311+G*
    Role: ORBITAL
    Keyword: BASIS
    atoms 1, 3, 6   entry N          line   151 file /home/chase/psi4conda/share/psi4/basis/6-311pgs.gbs 
    atoms 2         entry C          line   130 file /home/chase/psi4conda/share/psi4/basis/6-311pgs.gbs 
    atoms 4-5, 7-10 entry H          line    47 file /home/chase/psi4conda/share/psi4/basis/6-311pgs.gbs 

   => WB97X-D: Empirical Dispersion <=

    Chai and Head-Gordon Dispersion Correction
    Chai, J.-D.; Head-Gordon, M. (2010), J. Chem. Phys., 132: 6615-6620

        s6 =       1.000000


         ---------------------------------------------------------
                                   SCF
               by Justin Turney, Rob Parrish, Andy Simmonett
                          and Daniel G. A. Smith
                              RKS Reference
                        2 Threads,    953 MiB Core
         ---------------------------------------------------------

  ==> Geometry <==

    Molecular point group: c1
    Full point group: C1

    Geometry (in Angstrom), charge = 1, multiplicity = 1:

       Center              X                  Y                   Z               Mass       
    ------------   -----------------  -----------------  -----------------  -----------------
         N           -0.576593841567     1.187606600330    -0.170197171899    14.003074004430
         C            0.012519158433    -0.000325399670    -0.024799171899    12.000000000000
         N            1.191627158433    -0.081896399670     0.579848828101    14.003074004430
         H            1.653994158433     0.740225600330     0.933031828101     1.007825032230
         H            1.660831158433    -0.964465399670     0.705012828101     1.007825032230
         N           -0.622036841567    -1.105735399670    -0.395366171899    14.003074004430
         H           -0.376010841567     1.953268600330     0.451075828101     1.007825032230
         H           -1.241102841567     1.356532600330    -0.906801171899     1.007825032230
         H           -1.548626841567    -1.065781399670    -0.788332171899     1.007825032230
         H           -0.200838841567    -2.015555399670    -0.297195171899     1.007825032230

  Running in c1 symmetry.

  Rotational constants: A =      0.33958  B =      0.33606  C =      0.17001 [cm^-1]
  Rotational constants: A =  10180.23576  B =  10074.89541  C =   5096.88393 [MHz]
  Nuclear repulsion =  133.842165708823586

  Charge       = 1
  Multiplicity = 1
  Electrons    = 32
  Nalpha       = 16
  Nbeta        = 16

  ==> Algorithm <==

  SCF Algorithm Type is DF.
  DIIS enabled.
  MOM disabled.
  Fractional occupation disabled.
  Guess Type is SAD.
  Energy threshold   = 1.00e-06
  Density threshold  = 1.00e-06
  Integral threshold = 1.00e-12

  ==> Primary Basis <==

  Basis Set: 6-311+G*
    Blend: 6-311+G*
    Number of shells: 58
    Number of basis functions: 106
    Number of Cartesian functions: 110
    Spherical Harmonics?: true
    Max angular momentum: 2

  ==> DFT Potential <==

   => LibXC <=

    Version 5.1.5
    S. Lehtola, C. Steigemann, M. J. Oliveira, and M. A. Marques, SoftwareX 7, 1 (2018) (10.1016/j.softx.2017.11.002)

   => Composite Functional: WB97X-D <= 

    wB97X-D Hyb-GGA Exchange-Correlation Functional

    J.-D. Chai and M. Head-Gordon, Phys. Chem. Chem. Phys. 10, 6615 (2008) (10.1039/B810189B)

    Deriv               =              1
    GGA                 =           TRUE
    Meta                =          FALSE

    Exchange Hybrid     =           TRUE
    MP2 Hybrid          =          FALSE

   => Exchange-Correlation Functionals <=

    1.0000   wB97X-D range-separated functional

   => Exact (HF) Exchange <=

    0.7780            HF,LR [omega = 0.2000]
    0.2220               HF 

   => LibXC Density Thresholds  <==

    XC_HYB_GGA_XC_WB97X_D:  1.00E-14 

   => Molecular Quadrature <=

    Radial Scheme          =       TREUTLER
    Pruning Scheme         =           NONE
    Nuclear Scheme         =       TREUTLER

    Blocking Scheme        =         OCTREE
    BS radius alpha        =              1
    Pruning alpha          =              1
    Radial Points          =             75
    Spherical Points       =            302
    Total Points           =         216360
    Total Blocks           =           1641
    Max Points             =            256
    Max Functions          =            106
    Weights Tolerance      =       1.00E-15

   => Loading Basis Set <=

    Name: (6-311+G* AUX)
    Role: JKFIT
    Keyword: DF_BASIS_SCF
    atoms 1, 3, 6   entry N          line   262 file /home/chase/psi4conda/share/psi4/basis/heavy-aug-cc-pvtz-jkfit.gbs 
    atoms 2         entry C          line   200 file /home/chase/psi4conda/share/psi4/basis/heavy-aug-cc-pvtz-jkfit.gbs 
    atoms 4-5, 7-10 entry H          line   116 file /home/chase/psi4conda/share/psi4/basis/heavy-aug-cc-pvtz-jkfit.gbs 

  ==> Integral Setup <==

  DFHelper Memory: AOs need 0.154 GiB; user supplied 0.154 GiB. Using in-core AOs.

  ==> MemDFJK: Density-Fitted J/K Matrices <==

    J tasked:                   Yes
    K tasked:                   Yes
    wK tasked:                  Yes
    Omega:                2.000E-01
    OpenMP threads:               2
    Memory [MiB]:               157
    Algorithm:                 Core
    Schwarz Cutoff:           1E-12
    Mask sparsity (%):       0.4450
    Fitting Condition:        1E-10

   => Auxiliary Basis Set <=

  Basis Set: (6-311+G* AUX)
    Blend: HEAVY-AUG-CC-PVTZ-JKFIT
    Number of shells: 180
    Number of basis functions: 596
    Number of Cartesian functions: 734
    Spherical Harmonics?: true
    Max angular momentum: 4

  Cached 50.0% of DFT collocation blocks in 0.280 [GiB].

  Minimum eigenvalue in the overlap matrix is 8.9767067523E-04.
  Reciprocal condition number of the overlap matrix is 9.7725323942E-05.
    Using symmetric orthogonalization.

  ==> Pre-Iterations <==

  SCF Guess: Superposition of Atomic Densities via on-the-fly atomic UHF (no occupation information).

   -------------------------
    Irrep   Nso     Nmo    
   -------------------------
     A        106     106 
   -------------------------
    Total     106     106
   -------------------------

  ==> Iterations <==

                           Total Energy        Delta E     RMS |[F,P]|

   @DF-RKS iter SAD:  -205.61801108901483   -2.05618e+02   0.00000e+00 
   @DF-RKS iter   1:  -205.48356867786134    1.34442e-01   7.74847e-03 ADIIS/DIIS
   @DF-RKS iter   2:  -205.56859313773188   -8.50245e-02   6.47000e-03 ADIIS/DIIS
   @DF-RKS iter   3:  -205.74418256110491   -1.75589e-01   3.53057e-04 ADIIS/DIIS
   @DF-RKS iter   4:  -205.74475042902128   -5.67868e-04   1.85411e-04 ADIIS/DIIS
   @DF-RKS iter   5:  -205.74491708868484   -1.66660e-04   1.89640e-05 DIIS
   @DF-RKS iter   6:  -205.74491942878763   -2.34010e-06   1.50086e-06 DIIS
   @DF-RKS iter   7:  -205.74491945047751   -2.16899e-08   7.46244e-07 DIIS
  Energy and wave function converged.


  ==> Post-Iterations <==

   Electrons on quadrature grid:
      Ntotal   =   32.0000031989 ; deviation = 3.199e-06 

    Orbital Energies [Eh]
    ---------------------

    Doubly Occupied:                                                      

       1A    -14.671545     2A    -14.670993     3A    -14.662337  
       4A    -10.644986     5A     -1.333205     6A     -1.212128  
       7A     -1.208201     8A     -0.961581     9A     -0.892181  
      10A     -0.889130    11A     -0.804129    12A     -0.792296  
      13A     -0.789822    14A     -0.725790    15A     -0.571319  
      16A     -0.568376  

    Virtual:                                                              

      17A     -0.117989    18A     -0.100149    19A     -0.067750  
      20A     -0.066118    21A     -0.027646    22A     -0.025080  
      23A     -0.019583    24A      0.007867    25A      0.017071  
      26A      0.030277    27A      0.040641    28A      0.050106  
      29A      0.073597    30A      0.074815    31A      0.080780  
      32A      0.085286    33A      0.114388    34A      0.127392  
      35A      0.135331    36A      0.138159    37A      0.152242  
      38A      0.184800    39A      0.188384    40A      0.192984  
      41A      0.309558    42A      0.319387    43A      0.404839  
      44A      0.407316    45A      0.441529    46A      0.445914  
      47A      0.482965    48A      0.508591    49A      0.567622  
      50A      0.585905    51A      0.592304    52A      0.601089  
      53A      0.672225    54A      0.677767    55A      0.682636  
      56A      0.695118    57A      0.723406    58A      0.757215  
      59A      0.774067    60A      0.808074    61A      0.918339  
      62A      0.998777    63A      1.083710    64A      1.127767  
      65A      1.218767    66A      1.246587    67A      1.544665  
      68A      1.606665    69A      1.637685    70A      1.749689  
      71A      1.756560    72A      1.809665    73A      1.847991  
      74A      1.925741    75A      1.932942    76A      1.942467  
      77A      1.995452    78A      2.171572    79A      2.198557  
      80A      2.325920    81A      2.391424    82A      2.519998  
      83A      2.526881    84A      2.543947    85A      2.562432  
      86A      2.567923    87A      2.625131    88A      2.690348  
      89A      2.799965    90A      3.129305    91A      3.148528  
      92A      3.290153    93A      3.290524    94A      3.709926  
      95A      3.726315    96A      3.783218    97A      4.048635  
      98A      4.090485    99A      4.106715   100A      4.236267  
     101A      4.733176   102A      4.751730   103A     23.724969  
     104A     35.223194   105A     35.509357   106A     35.522290  

    Final Occupation by Irrep:
              A 
    DOCC [    16 ]

  @DF-RKS Final Energy:  -205.74491945047751

   => Energetics <=

    Nuclear Repulsion Energy =            133.8421657088235861
    One-Electron Energy =                -535.1638803525379444
    Two-Electron Energy =                 215.0504600796496675
    DFT Exchange-Correlation Energy =     -19.4707387357012536
    Empirical Dispersion Energy =          -0.0029261507115702
    VV10 Nonlocal Energy =                  0.0000000000000000
    Total Energy =                       -205.7449194504775107

Computation Completed


Properties will be evaluated at   0.000000,   0.000000,   0.000000 [a0]

Properties computed using the SCF density matrix


 Multipole Moments:

 ------------------------------------------------------------------------------------
     Multipole            Electronic (a.u.)      Nuclear  (a.u.)        Total (a.u.)
 ------------------------------------------------------------------------------------

 L = 1.  Multiply by 2.5417464519 to convert [e a0] to [Debye]
 Dipole X            :          0.0611467           -0.0484975            0.0126492
 Dipole Y            :         -0.0698042            0.0039605           -0.0658437
 Dipole Z            :         -0.0548740            0.0906980            0.0358240
 Magnitude           :                                                    0.0760181

 ------------------------------------------------------------------------------------

*** tstop() called on DESKTOP-26BCFJT at Thu Nov  3 12:41:48 2022
Module time:
	user time   =      12.97 seconds =       0.22 minutes
	system time =       0.27 seconds =       0.00 minutes
	total time  =          7 seconds =       0.12 minutes
Total time:
	user time   =      12.97 seconds =       0.22 minutes
	system time =       0.27 seconds =       0.00 minutes
	total time  =          7 seconds =       0.12 minutes


Properties will be evaluated at   0.000000,   0.000000,   0.000000 [a0]
OEProp: No title given, name of density matrix used for the following properties is 'SCF density'


  Wiberg Bond Indices using Orthogonal Lowdin Orbitals:

  Irrep: 1 Size: 10 x 10

                 1                   2                   3                   4                   5

    1     0.00000000000000     1.51751798435468     0.18493734035749     0.01414446936683     0.01002653990545
    2     1.51751798435468     0.00000000000000     1.56010073629920     0.05280201391218     0.05277677244450
    3     0.18493734035749     1.56010073629920     0.00000000000000     0.83272929097464     0.83368866875358
    4     0.01414446936683     0.05280201391218     0.83272929097464     0.00000000000000     0.01146232742843
    5     0.01002653990545     0.05277677244450     0.83368866875358     0.01146232742843     0.00000000000000
    6     0.18370633176955     1.56233333019024     0.19688062118775     0.00944601017041     0.01358696623561
    7     0.83225767032138     0.05228789415530     0.01343880161502     0.00109897851359     0.00044986836219
    8     0.83258385054983     0.05242621282452     0.01072730630297     0.00044666098497     0.00063153978845
    9     0.01432289626788     0.05264971093142     0.00940032404973     0.00070252711905     0.00050620036226
   10     0.01040283955886     0.05275646664741     0.01351083228094     0.00049723002187     0.00127043836215

                 6                   7                   8                   9                  10

    1     0.18370633176955     0.83225767032138     0.83258385054983     0.01432289626788     0.01040283955886
    2     1.56233333019024     0.05228789415530     0.05242621282452     0.05264971093142     0.05275646664741
    3     0.19688062118775     0.01343880161502     0.01072730630297     0.00940032404973     0.01351083228094
    4     0.00944601017041     0.00109897851359     0.00044666098497     0.00070252711905     0.00049723002187
    5     0.01358696623561     0.00044986836219     0.00063153978845     0.00050620036226     0.00127043836215
    6     0.00000000000000     0.01097944134789     0.01315935528567     0.83259381927953     0.83367486193763
    7     0.01097944134789     0.00000000000000     0.01124849472280     0.00039200113931     0.00058066934460
    8     0.01315935528567     0.01124849472280     0.00000000000000     0.00099167708734     0.00041369338898
    9     0.83259381927953     0.00039200113931     0.00099167708734     0.00000000000000     0.01149616390876
   10     0.83367486193763     0.00058066934460     0.00041369338898     0.01149616390876     0.00000000000000



  Atomic Valences: 

 #  #
 Irrep: 1
      1:    3.599899922451955
      2:    4.955651121759466
      3:    3.655413921821332
      4:    0.923329508491975
      5:    0.924399321642630
      6:    3.656360737404276
      7:    0.922733819522079
      8:    0.922628790935540
      9:    0.923055320145278
     10:    0.924603195451205


    Psi4 stopped on: Thursday, 03 November 2022 12:41PM
    Psi4 wall time for execution: 0:00:06.88

*** Psi4 exiting successfully. Buy a developer a beer!
