      -----------------------------------------------------------      
     |                   =====================                   |     
     |                           x T B                           |     
     |                   =====================                   |     
     |                         S. Grimme                         |     
     |          Mulliken Center for Theoretical Chemistry        |     
     |                    University of Bonn                     |     
      -----------------------------------------------------------      

   * xtb version 6.5.1 (b24c23e) compiled by 'conda@728c89f4b128' on 2022-07-12

   xtb is free software: you can redistribute it and/or modify it under
   the terms of the GNU Lesser General Public License as published by
   the Free Software Foundation, either version 3 of the License, or
   (at your option) any later version.
   
   xtb is distributed in the hope that it will be useful,
   but WITHOUT ANY WARRANTY; without even the implied warranty of
   MERCHANTABILITY or FITNESS FOR A PARTICULAR PURPOSE.  See the
   GNU Lesser General Public License for more details.
   
   Cite this work as:
   * C. Bannwarth, E. Caldeweyher, S. Ehlert, A. Hansen, P. Pracht,
     J. Seibert, S. Spicher, S. Grimme, WIREs Comput. Mol. Sci., 2020, 11,
     e01493. DOI: 10.1002/wcms.1493
   
   for GFN2-xTB:
   * C. Bannwarth, S. Ehlert and S. Grimme., J. Chem. Theory Comput., 2019,
     15, 1652-1671. DOI: 10.1021/acs.jctc.8b01176
   for GFN1-xTB:
   * S. Grimme, C. Bannwarth, P. Shushkov, J. Chem. Theory Comput., 2017,
     13, 1989-2009. DOI: 10.1021/acs.jctc.7b00118
   for GFN0-xTB:
   * P. Pracht, E. Caldeweyher, S. Ehlert, S. Grimme, ChemRxiv, 2019, preprint.
     DOI: 10.26434/chemrxiv.8326202.v1
   for GFN-FF:
   * S. Spicher and S. Grimme, Angew. Chem. Int. Ed., 2020, 59, 15665-15673.
     DOI: 10.1002/anie.202004239
   
   for ALPB and GBSA implicit solvation:
   * S. Ehlert, M. Stahn, S. Spicher, S. Grimme, J. Chem. Theory Comput.,
     2021, 17, 4250-4261. DOI: 10.1021/acs.jctc.1c00471
   
   for DFT-D4:
   * E. Caldeweyher, C. Bannwarth and S. Grimme, J. Chem. Phys., 2017,
     147, 034112. DOI: 10.1063/1.4993215
   * E. Caldeweyher, S. Ehlert, A. Hansen, H. Neugebauer, S. Spicher,
     C. Bannwarth and S. Grimme, J. Chem. Phys., 2019, 150, 154122.
     DOI: 10.1063/1.5090222
   * E. Caldeweyher, J.-M. Mewes, S. Ehlert and S. Grimme, Phys. Chem. Chem. Phys.
     2020, 22, 8499-8512. DOI: 10.1039/D0CP00502A
   
   for sTDA-xTB:
   * S. Grimme and C. Bannwarth, J. Chem. Phys., 2016, 145, 054103.
     DOI: 10.1063/1.4959605
   
   in the mass-spec context:
   * V. Asgeirsson, C. Bauer and S. Grimme, Chem. Sci., 2017, 8, 4879.
     DOI: 10.1039/c7sc00601b
   * J. Koopman and S. Grimme, ACS Omega 2019, 4, 12, 15120-15133.
     DOI: 10.1021/acsomega.9b02011
   
   for metadynamics refer to:
   * S. Grimme, J. Chem. Theory Comput., 2019, 155, 2847-2862
     DOI: 10.1021/acs.jctc.9b00143
   
   for SPH calculations refer to:
   * S. Spicher and S. Grimme, J. Chem. Theory Comput., 2021, 17, 1701-1714
     DOI: 10.1021/acs.jctc.0c01306
   
   with help from (in alphabetical order)
   P. Atkinson, C. Bannwarth, F. Bohle, G. Brandenburg, E. Caldeweyher
   M. Checinski, S. Dohm, S. Ehlert, S. Ehrlich, I. Gerasimov, C. Hölzer
   A. Katbashev, J. Koopman, C. Lavigne, S. Lehtola, F. März, M. Müller,
   F. Musil, H. Neugebauer, J. Pisarek, C. Plett, P. Pracht, F. Pultar,
   J. Seibert, P. Shushkov, S. Spicher, M. Stahn, M. Steiner, T. Strunk,
   J. Stückrath, T. Rose, and J. Unsleber
   
 * started run on 2022/11/03 at 12:40:55.116     

           -------------------------------------------------
          |                Calculation Setup                |
           -------------------------------------------------

          program call               : /home/chase/psi4conda/envs/xtbenv/bin/xtb --gfn 2 --chrg 1 --uhf 0 guan-opt-1-2-240_preQMOPTprefit_xyzformat.xyz --opt --input xtb-opt-1-2-240_constr.txt
          coordinate file            : guan-opt-1-2-240_preQMOPTprefit_xyzformat.xyz
          omp threads                :                     8

   ID    Z sym.   atoms
    1    7 N      1, 3, 6
    2    6 C      2
    3    1 H      4, 5, 7-10
constraining angle 7 1 2 6 to  240.0175323°, actual value: -119.9824677°
constraining angle 8 1 2 6 to   60.0179462°, actual value:   60.0179462°
constraining angle 9 6 2 1 to    0.0085801°, actual value:    0.0085801°
constraining angle 10 6 2 1 to  179.9956238°, actual value:  179.9956238°
constraining angle 4 3 2 1 to    0.0072521°, actual value:    0.0072521°
constraining angle 5 3 2 1 to  180.0031781°, actual value: -179.9968219°

           -------------------------------------------------
          |                 G F N 2 - x T B                 |
           -------------------------------------------------

        Reference                      10.1021/acs.jctc.8b01176
      * Hamiltonian:
        H0-scaling (s, p, d)           1.850000    2.230000    2.230000
        zeta-weighting                 0.500000
      * Dispersion:
        s8                             2.700000
        a1                             0.520000
        a2                             5.000000
        s9                             5.000000
      * Repulsion:
        kExp                           1.500000    1.000000
        rExp                           1.000000
      * Coulomb:
        alpha                          2.000000
        third order                    shell-resolved
        anisotropic                    true
        a3                             3.000000
        a5                             4.000000
        cn-shift                       1.200000
        cn-exp                         4.000000
        max-rad                        5.000000

q/qsh data taken from xtbrestart
CAMM data taken from xtbrestart

          ...................................................
          :                      SETUP                      :
          :.................................................:
          :  # basis functions                  22          :
          :  # atomic orbitals                  22          :
          :  # shells                           14          :
          :  # electrons                        24          :
          :  max. iterations                   250          :
          :  Hamiltonian                  GFN2-xTB          :
          :  restarted?                       true          :
          :  GBSA solvation                  false          :
          :  PC potential                    false          :
          :  electronic temp.          300.0000000     K    :
          :  accuracy                    1.0000000          :
          :  -> integral cutoff          0.2500000E+02      :
          :  -> integral neglect         0.1000000E-07      :
          :  -> SCF convergence          0.1000000E-05 Eh   :
          :  -> wf. convergence          0.1000000E-03 e    :
          :  Broyden damping             0.4000000          :
          ...................................................

 iter      E             dE          RMSdq      gap      omega  full diag
   1    -13.7229787 -0.137230E+02  0.786E-01    3.74       0.0  T
   2    -13.7258608 -0.288212E-02  0.321E-01    4.26       1.0  T
   3    -13.7258939 -0.330501E-04  0.178E-01    4.24       1.0  T
   4    -13.7258977 -0.385420E-05  0.217E-02    4.26       1.5  T
   5    -13.7258989 -0.112353E-05  0.110E-02    4.26       2.9  T
   6    -13.7258990 -0.137203E-06  0.190E-03    4.26      16.6  T
   7    -13.7258990 -0.994256E-08  0.650E-04    4.26      48.6  T
   8    -13.7258990 -0.328811E-09  0.241E-04    4.26     131.1  T

   *** convergence criteria satisfied after 8 iterations ***

         #    Occupation            Energy/Eh            Energy/eV
      -------------------------------------------------------------
         1        2.0000           -0.9017698             -24.5384
       ...           ...                  ...                  ...
         6        2.0000           -0.7608837             -20.7047
         7        2.0000           -0.7577490             -20.6194
         8        2.0000           -0.7199064             -19.5897
         9        2.0000           -0.7123385             -19.3837
        10        2.0000           -0.6889151             -18.7463
        11        2.0000           -0.6273327             -17.0706
        12        2.0000           -0.5944394             -16.1755 (HOMO)
        13                         -0.4379025             -11.9159 (LUMO)
        14                         -0.2307953              -6.2803
        15                         -0.1492238              -4.0606
        16                         -0.1372767              -3.7355
        17                         -0.0395837              -1.0771
       ...                                ...                  ...
        22                          0.2740096               7.4562
      -------------------------------------------------------------
                  HL-Gap            0.1565369 Eh            4.2596 eV
             Fermi-level           -0.5161710 Eh          -14.0457 eV

 SCC (total)                   0 d,  0 h,  0 min,  0.290 sec
 SCC setup                      ...        0 min,  0.006 sec (  1.927%)
 Dispersion                     ...        0 min,  0.015 sec (  5.101%)
 classical contributions        ...        0 min,  0.009 sec (  3.155%)
 integral evaluation            ...        0 min,  0.022 sec (  7.576%)
 iterations                     ...        0 min,  0.176 sec ( 60.610%)
 molecular gradient             ...        0 min,  0.063 sec ( 21.581%)
 printout                       ...        0 min,  0.000 sec (  0.045%)

         :::::::::::::::::::::::::::::::::::::::::::::::::::::
         ::                     SUMMARY                     ::
         :::::::::::::::::::::::::::::::::::::::::::::::::::::
         :: total energy             -13.538352486125 Eh    ::
         :: gradient norm              0.041299923310 Eh/a0 ::
         :: HOMO-LUMO gap              4.259584926123 eV    ::
         ::.................................................::
         :: SCC energy               -13.725899018435 Eh    ::
         :: -> isotropic ES            0.111910356170 Eh    ::
         :: -> anisotropic ES         -0.009838893623 Eh    ::
         :: -> anisotropic XC          0.010860526494 Eh    ::
         :: -> dispersion             -0.003403742741 Eh    ::
         :: repulsion energy           0.187544121161 Eh    ::
         :: add. restraining           0.000000000000 Eh    ::
         :: total charge               1.000000000000 e     ::
         :::::::::::::::::::::::::::::::::::::::::::::::::::::

      ----------------------------------------------------------- 
     |                   =====================                   |
     |                        A N C O P T                        |
     |                   =====================                   |
     |               Approximate Normal Coordinate               |
     |                Rational Function Optimizer                |
      ----------------------------------------------------------- 

          ...................................................
          :                      SETUP                      :
          :.................................................:
          :   optimization level            normal          :
          :   max. optcycles                   200          :
          :   ANC micro-cycles                  20          :
          :   degrees of freedom                24          :
          :.................................................:
          :   RF solver                   davidson          :
          :   write xtbopt.log                true          :
          :   linear?                        false          :
          :   energy convergence         0.5000000E-05 Eh   :
          :   grad. convergence          0.1000000E-02 Eh/α :
          :   maximium RF displ.         1.0000000          :
          :   Hlow (freq-cutoff)         0.1000000E-01      :
          :   Hmax (freq-cutoff)         5.0000000          :
          :   S6 in model hess.         20.0000000          :
          ...................................................

generating ANC from model Hessian ...
Using Lindh-Hessian (1995)
 Shifting diagonal of input Hessian by    0.0000000000000000     
 Lowest  eigenvalues of input Hessian
    0.000000    0.000000    0.000000    0.000000    0.000000    0.000000
    0.039305    0.040260    0.049028    0.137633    0.152201    0.180688
    0.181968    0.340273    0.356964    0.413295    0.757806    0.810545
 Highest eigenvalues
    2.238932    2.323425    6.834715   10.074507   10.681734   26.572382


........................................................................
.............................. CYCLE    1 ..............................
........................................................................
   1    -13.7258990 -0.137259E+02  0.582E-05    4.26       0.0  T
   2    -13.7258990 -0.223466E-11  0.323E-05    4.26     979.2  T
   3    -13.7258990 -0.150990E-12  0.801E-06    4.26    3948.3  T
     SCC iter.                  ...        0 min,  0.049 sec
     gradient                   ...        0 min,  0.046 sec
 * total energy  :   -13.5383525 Eh     change       -0.2609681E-09 Eh
   gradient norm :     0.0413059 Eh/α   predicted     0.0000000E+00 (-100.00%)
   displ. norm   :     0.2935383 α      lambda       -0.5337125E-02
   maximum displ.:     0.2622547 α      in ANC's #1, #2, #4, ...

........................................................................
.............................. CYCLE    2 ..............................
........................................................................
   1    -13.7346108 -0.137346E+02  0.216E-01    4.49       0.0  T
   2    -13.7346181 -0.735741E-05  0.123E-01    4.50       1.0  T
   3    -13.7346195 -0.136303E-05  0.163E-02    4.50       1.9  T
   4    -13.7346206 -0.117136E-05  0.565E-03    4.50       5.6  T
   5    -13.7346207 -0.684613E-08  0.197E-03    4.50      16.0  T
   6    -13.7346207 -0.760387E-08  0.414E-04    4.50      76.4  T
   7    -13.7346207 -0.298861E-09  0.703E-05    4.50     449.9  T
     SCC iter.                  ...        0 min,  0.157 sec
     gradient                   ...        0 min,  0.058 sec
 * total energy  :   -13.5419138 Eh     change       -0.3561284E-02 Eh
   gradient norm :     0.0490996 Eh/α   predicted    -0.2898526E-02 ( -18.61%)
   displ. norm   :     0.2235271 α      lambda       -0.2146079E-02
   maximum displ.:     0.1809235 α      in ANC's #1, #2, #4, ...

........................................................................
.............................. CYCLE    3 ..............................
........................................................................
   1    -13.7381976 -0.137382E+02  0.155E-01    4.60       0.0  T
   2    -13.7382034 -0.578053E-05  0.860E-02    4.62       1.0  T
   3    -13.7382042 -0.764895E-06  0.142E-02    4.62       2.2  T
   4    -13.7382047 -0.593635E-06  0.395E-03    4.62       8.0  T
   5    -13.7382048 -0.124774E-07  0.201E-03    4.62      15.8  T
   6    -13.7382048 -0.308464E-08  0.320E-04    4.62      98.9  T
   7    -13.7382048 -0.181975E-09  0.111E-04    4.62     285.6  T
     SCC iter.                  ...        0 min,  0.172 sec
     gradient                   ...        0 min,  0.065 sec
 * total energy  :   -13.5408897 Eh     change        0.1024031E-02 Eh
   gradient norm :     0.3028503 Eh/α   predicted    -0.1126654E-02 (-210.02%)
   displ. norm   :     0.0453825 α      lambda       -0.3889276E-02
   maximum displ.:     0.0379722 α      in ANC's #1, #4, #21, ...

........................................................................
.............................. CYCLE    4 ..............................
........................................................................
   1    -13.7383505 -0.137384E+02  0.489E-02    4.62       0.0  T
   2    -13.7383527 -0.215699E-05  0.260E-02    4.63       1.2  T
   3    -13.7383528 -0.116421E-06  0.782E-03    4.63       4.0  T
   4    -13.7383528 -0.147306E-07  0.145E-03    4.63      21.9  T
   5    -13.7383528 -0.608649E-09  0.566E-04    4.63      55.9  T
   6    -13.7383528 -0.210392E-09  0.738E-05    4.63     428.6  T
     SCC iter.                  ...        0 min,  0.109 sec
     gradient                   ...        0 min,  0.063 sec
 * total energy  :   -13.5425450 Eh     change       -0.1655236E-02 Eh
   gradient norm :     0.0459240 Eh/α   predicted    -0.1948643E-02 (  17.73%)
   displ. norm   :     0.0822008 α      lambda       -0.3772694E-03
   maximum displ.:     0.0742123 α      in ANC's #1, #2, #4, ...

........................................................................
.............................. CYCLE    5 ..............................
........................................................................
   1    -13.7393210 -0.137393E+02  0.627E-02    4.61       0.0  T
   2    -13.7393223 -0.132342E-05  0.348E-02    4.60       1.0  T
   3    -13.7393224 -0.136201E-06  0.790E-03    4.60       4.0  T
   4    -13.7393226 -0.114650E-06  0.178E-03    4.60      17.8  T
   5    -13.7393226 -0.700968E-10  0.615E-04    4.60      51.5  T
   6    -13.7393226 -0.926628E-09  0.109E-04    4.60     288.9  T
     SCC iter.                  ...        0 min,  0.082 sec
     gradient                   ...        0 min,  0.058 sec
 * total energy  :   -13.5426320 Eh     change       -0.8703462E-04 Eh
   gradient norm :     0.0259255 Eh/α   predicted    -0.1899087E-03 ( 118.20%)
   displ. norm   :     0.0246226 α      lambda       -0.1145311E-03
   maximum displ.:     0.0165496 α      in ANC's #2, #1, #3, ...

........................................................................
.............................. CYCLE    6 ..............................
........................................................................
   1    -13.7392541 -0.137393E+02  0.184E-02    4.60       0.0  T
   2    -13.7392544 -0.331503E-06  0.941E-03    4.61       3.4  T
   3    -13.7392544 -0.185993E-07  0.396E-03    4.61       8.0  T
   4    -13.7392544 -0.149176E-07  0.544E-04    4.61      58.2  T
   5    -13.7392544 -0.284523E-09  0.287E-04    4.61     110.1  T
     SCC iter.                  ...        0 min,  0.070 sec
     gradient                   ...        0 min,  0.058 sec
 * total energy  :   -13.5426796 Eh     change       -0.4763076E-04 Eh
   gradient norm :     0.0104337 Eh/α   predicted    -0.5730038E-04 (  20.30%)
   displ. norm   :     0.0183528 α      lambda       -0.1768034E-04
   maximum displ.:     0.0138628 α      in ANC's #1, #2, #4, ...

........................................................................
.............................. CYCLE    7 ..............................
........................................................................
   1    -13.7391355 -0.137391E+02  0.140E-02    4.61       0.0  T
   2    -13.7391356 -0.888631E-07  0.758E-03    4.61       4.2  T
   3    -13.7391356 -0.683625E-08  0.177E-03    4.61      17.8  T
   4    -13.7391356 -0.411130E-08  0.391E-04    4.61      80.8  T
   5    -13.7391356 -0.260650E-09  0.219E-04    4.61     144.4  T
     SCC iter.                  ...        0 min,  0.064 sec
     gradient                   ...        0 min,  0.047 sec
 * total energy  :   -13.5426863 Eh     change       -0.6642714E-05 Eh
   gradient norm :     0.0032825 Eh/α   predicted    -0.8842651E-05 (  33.12%)
   displ. norm   :     0.0051273 α      lambda       -0.3623410E-05
   maximum displ.:     0.0044987 α      in ANC's #1, #3, #5, ...

........................................................................
.............................. CYCLE    8 ..............................
........................................................................
   1    -13.7392199 -0.137392E+02  0.361E-03    4.61       0.0  T
   2    -13.7392199 -0.679084E-08  0.203E-03    4.61      15.6  T
   3    -13.7392199 -0.548173E-09  0.560E-04    4.61      56.4  T
   4    -13.7392199 -0.486230E-09  0.103E-04    4.61     306.4  T
     SCC iter.                  ...        0 min,  0.059 sec
     gradient                   ...        0 min,  0.045 sec
 * total energy  :   -13.5426884 Eh     change       -0.2157908E-05 Eh
   gradient norm :     0.0013956 Eh/α   predicted    -0.1811209E-05 ( -16.07%)
   displ. norm   :     0.0082662 α      lambda       -0.1549092E-05
   maximum displ.:     0.0052346 α      in ANC's #1, #3, #2, ...

........................................................................
.............................. CYCLE    9 ..............................
........................................................................
   1    -13.7392973 -0.137393E+02  0.557E-03    4.61       0.0  T
   2    -13.7392973 -0.254990E-07  0.300E-03    4.61      10.5  T
   3    -13.7392973 -0.124396E-08  0.113E-03    4.61      28.1  T
   4    -13.7392973 -0.144400E-08  0.148E-04    4.61     213.0  T
   5    -13.7392973 -0.231388E-10  0.748E-05    4.61     422.9  T
     SCC iter.                  ...        0 min,  0.072 sec
     gradient                   ...        0 min,  0.054 sec
 * total energy  :   -13.5426892 Eh     change       -0.7725142E-06 Eh
   gradient norm :     0.0014799 Eh/α   predicted    -0.7747793E-06 (   0.29%)
   displ. norm   :     0.0052388 α      lambda       -0.7639164E-06
   maximum displ.:     0.0040305 α      in ANC's #2, #1, #3, ...

........................................................................
.............................. CYCLE   10 ..............................
........................................................................
   1    -13.7392280 -0.137392E+02  0.388E-03    4.61       0.0  T
   2    -13.7392280 -0.166405E-07  0.211E-03    4.61      15.0  T
   3    -13.7392280 -0.946239E-09  0.894E-04    4.61      35.4  T
   4    -13.7392280 -0.709301E-09  0.106E-04    4.61     299.6  T
     SCC iter.                  ...        0 min,  0.071 sec
     gradient                   ...        0 min,  0.040 sec
 * total energy  :   -13.5426896 Eh     change       -0.3935498E-06 Eh
   gradient norm :     0.0012533 Eh/α   predicted    -0.3833177E-06 (  -2.60%)
   displ. norm   :     0.0016960 α      lambda       -0.2164919E-06
   maximum displ.:     0.0011803 α      in ANC's #2, #1, #3, ...

........................................................................
.............................. CYCLE   11 ..............................
........................................................................
   1    -13.7392081 -0.137392E+02  0.141E-03    4.61       0.0  T
   2    -13.7392081 -0.200552E-08  0.739E-04    4.61      42.8  T
   3    -13.7392081 -0.962217E-10  0.295E-04    4.61     107.0  T
     SCC iter.                  ...        0 min,  0.061 sec
     gradient                   ...        0 min,  0.054 sec
 * total energy  :   -13.5426897 Eh     change       -0.1145702E-06 Eh
   gradient norm :     0.0003813 Eh/α   predicted    -0.1070553E-06 (  -6.56%)
   displ. norm   :     0.0014176 α      lambda       -0.6943333E-07
   maximum displ.:     0.0009663 α      in ANC's #1, #3, #2, ...

   *** GEOMETRY OPTIMIZATION CONVERGED AFTER 11 ITERATIONS ***

------------------------------------------------------------------------
 total energy gain   :        -0.0043372 Eh       -2.7217 kcal/mol
 total RMSD          :         0.1606880 a0        0.0850 Å
 total power (kW/mol):        -1.0352192 (step)   -5.3370 (real)
------------------------------------------------------------------------

 ANCopt (total)                0 d,  0 h,  0 min,  2.134 sec
 optimizer setup                ...        0 min,  0.000 sec (  0.003%)
 model hessian                  ...        0 min,  0.005 sec (  0.237%)
 ANC generation                 ...        0 min,  0.000 sec (  0.010%)
 coordinate transformation      ...        0 min,  0.000 sec (  0.002%)
 single point calculation       ...        0 min,  2.063 sec ( 96.690%)
 optimization log               ...        0 min,  0.001 sec (  0.043%)
 hessian update                 ...        0 min,  0.063 sec (  2.947%)
 rational function              ...        0 min,  0.001 sec (  0.045%)

================
 final structure:
================
10
 xtb: 6.5.1 (b24c23e)
N           -0.57709712870000        1.19350483035232       -0.15407266136857
C            0.00185162853189       -0.00805899553604        0.05597958207432
N            1.32336765844312       -0.09869295539216        0.06768472856621
H            1.89226382696818        0.72184849936089       -0.07813598955913
H            1.80181547600138       -0.97376669171938        0.21969459399025
N           -0.74405300203602       -1.10053011093263        0.10714557367308
H           -0.33549750635356        1.76043530799602       -0.94741224767275
H           -1.26844729733990        1.56021028633021        0.47631535038322
H           -1.74437799763668       -1.03875670411588       -0.00979950512135
H           -0.34978566787842       -2.01618647634335        0.26255356503473

 Bond Distances (Angstroems)
 ---------------------------
N1-C2=1.3502         N1-H7=1.0046         N1-H8=1.0049         C2-N1=1.3502         C2-N3=1.3247         C2-N6=1.3238         
N3-C2=1.3247         N3-H4=1.0091         N3-H5=1.0088         H4-N3=1.0091         H5-N3=1.0088         N6-C2=1.3238         
N6-H9=1.0090         N6-H10=1.0090        H7-N1=1.0046         H8-N1=1.0049         H9-N6=1.0090         H10-N6=1.0090        
 N  H  Rav=1.0076 sigma=0.0020  Rmin=1.0046  Rmax=1.0091     6
 N  C  Rav=1.3329 sigma=0.0122  Rmin=1.3238  Rmax=1.3502     3

 selected bond angles (degree)
 --------------------
H7-N1-C2=121.46                H8-N1-C2=121.48                H8-N1-H7=117.06                N3-C2-N1=119.34                
N6-C2-N1=119.92                N6-C2-N3=120.35                H4-N3-C2=120.37                H5-N3-C2=122.26                
H5-N3-H4=117.37                H9-N6-C2=120.24                H10-N6-C2=122.32               H10-N6-H9=117.44               

 selected dihedral angles (degree)
 ---------------------------------
N3-C2-N1-H7= 52.75            N3-C2-N1-H8=232.76            N6-C2-N1-H7=239.84            N6-C2-N1-H8= 59.86            
H4-N3-C2-N1=  0.05            H4-N3-C2-N6=172.92            H5-N3-C2-N1=180.05            H5-N3-C2-N6=352.92            
H9-N6-C2-N1=359.97            H9-N6-C2-N3=187.14            H10-N6-C2-N1=180.03           H10-N6-C2-N3=  7.20           
           -------------------------------------------------
          |                Final Singlepoint                |
           -------------------------------------------------

          ...................................................
          :                      SETUP                      :
          :.................................................:
          :  # basis functions                  22          :
          :  # atomic orbitals                  22          :
          :  # shells                           14          :
          :  # electrons                        24          :
          :  max. iterations                   250          :
          :  Hamiltonian                  GFN2-xTB          :
          :  restarted?                      false          :
          :  GBSA solvation                  false          :
          :  PC potential                    false          :
          :  electronic temp.          300.0000000     K    :
          :  accuracy                    1.0000000          :
          :  -> integral cutoff          0.2500000E+02      :
          :  -> integral neglect         0.1000000E-07      :
          :  -> SCF convergence          0.1000000E-05 Eh   :
          :  -> wf. convergence          0.1000000E-03 e    :
          :  Broyden damping             0.4000000          :
          ...................................................

 iter      E             dE          RMSdq      gap      omega  full diag
   1    -13.7392081 -0.137392E+02  0.397E-05    4.61       0.0  T
   2    -13.7392081 -0.124523E-11  0.209E-05    4.61    1509.5  T
   3    -13.7392081 -0.426326E-13  0.937E-06    4.61    3373.9  T

   *** convergence criteria satisfied after 3 iterations ***

         #    Occupation            Energy/Eh            Energy/eV
      -------------------------------------------------------------
         1        2.0000           -0.9064729             -24.6664
       ...           ...                  ...                  ...
         6        2.0000           -0.7642784             -20.7971
         7        2.0000           -0.7589878             -20.6531
         8        2.0000           -0.7206033             -19.6086
         9        2.0000           -0.7140024             -19.4290
        10        2.0000           -0.6944848             -18.8979
        11        2.0000           -0.6282263             -17.0949
        12        2.0000           -0.5986344             -16.2897 (HOMO)
        13                         -0.4291493             -11.6777 (LUMO)
        14                         -0.2247573              -6.1160
        15                         -0.1429142              -3.8889
        16                         -0.1320981              -3.5946
        17                         -0.0335873              -0.9140
       ...                                ...                  ...
        22                          0.2866854               7.8011
      -------------------------------------------------------------
                  HL-Gap            0.1694851 Eh            4.6119 eV
             Fermi-level           -0.5138918 Eh          -13.9837 eV

 SCC (total)                   0 d,  0 h,  0 min,  0.126 sec
 SCC setup                      ...        0 min,  0.004 sec (  2.918%)
 Dispersion                     ...        0 min,  0.008 sec (  6.462%)
 classical contributions        ...        0 min,  0.008 sec (  6.208%)
 integral evaluation            ...        0 min,  0.014 sec ( 11.007%)
 iterations                     ...        0 min,  0.044 sec ( 34.410%)
 molecular gradient             ...        0 min,  0.049 sec ( 38.864%)
 printout                       ...        0 min,  0.000 sec (  0.118%)

         :::::::::::::::::::::::::::::::::::::::::::::::::::::
         ::                     SUMMARY                     ::
         :::::::::::::::::::::::::::::::::::::::::::::::::::::
         :: total energy             -13.542689722133 Eh    ::
         :: gradient norm              0.000382378264 Eh/a0 ::
         :: HOMO-LUMO gap              4.611925543584 eV    ::
         ::.................................................::
         :: SCC energy               -13.739208092290 Eh    ::
         :: -> isotropic ES            0.112065806536 Eh    ::
         :: -> anisotropic ES         -0.009904556954 Eh    ::
         :: -> anisotropic XC          0.010520670581 Eh    ::
         :: -> dispersion             -0.003411350318 Eh    ::
         :: repulsion energy           0.196467370831 Eh    ::
         :: add. restraining           0.000048751712 Eh    ::
         :: total charge               1.000000000000 e     ::
         :::::::::::::::::::::::::::::::::::::::::::::::::::::

           -------------------------------------------------
          |                Property Printout                |
           -------------------------------------------------

    * Orbital Energies and Occupations

         #    Occupation            Energy/Eh            Energy/eV
      -------------------------------------------------------------
         1        2.0000           -0.9064729             -24.6664
         2        2.0000           -0.8567659             -23.3138
         3        2.0000           -0.8491232             -23.1058
         4        2.0000           -0.7868494             -21.4113
         5        2.0000           -0.7684900             -20.9117
         6        2.0000           -0.7642784             -20.7971
         7        2.0000           -0.7589878             -20.6531
         8        2.0000           -0.7206033             -19.6086
         9        2.0000           -0.7140024             -19.4290
        10        2.0000           -0.6944848             -18.8979
        11        2.0000           -0.6282263             -17.0949
        12        2.0000           -0.5986344             -16.2897 (HOMO)
        13                         -0.4291493             -11.6777 (LUMO)
        14                         -0.2247573              -6.1160
        15                         -0.1429142              -3.8889
        16                         -0.1320981              -3.5946
        17                         -0.0335873              -0.9140
        18                          0.0053283               0.1450
        19                          0.0710755               1.9341
        20                          0.0819076               2.2288
        21                          0.2792210               7.5980
        22                          0.2866854               7.8011
      -------------------------------------------------------------
                  HL-Gap            0.1694851 Eh            4.6119 eV
             Fermi-level           -0.5138918 Eh          -13.9837 eV

     #   Z          covCN         q      C6AA      α(0)
     1   7 N        2.650    -0.272    27.047     7.724
     2   6 C        2.730     0.261    22.608     7.784
     3   7 N        2.652    -0.208    25.521     7.503
     4   1 H        0.860     0.244     0.905     1.490
     5   1 H        0.860     0.237     0.934     1.514
     6   7 N        2.651    -0.206    25.481     7.497
     7   1 H        0.860     0.230     0.963     1.537
     8   1 H        0.860     0.230     0.967     1.540
     9   1 H        0.860     0.245     0.902     1.487
    10   1 H        0.860     0.238     0.932     1.512

 Mol. C6AA /au·bohr⁶  :        666.378418
 Mol. C8AA /au·bohr⁸  :      13789.635639
 Mol. α(0) /au        :         39.589038


Wiberg/Mayer (AO) data.
largest (>0.10) Wiberg bond orders for each atom

 ---------------------------------------------------------------------------
     #   Z sym  total        # sym  WBO       # sym  WBO       # sym  WBO
 ---------------------------------------------------------------------------
     1   7 N    3.239 --     2 C    1.218     8 H    0.918     7 H    0.916
     2   6 C    3.973 --     6 N    1.372     3 N    1.370     1 N    1.218
     3   7 N    3.465 --     2 C    1.370     5 H    0.923     4 H    0.921
                             6 N    0.137
     4   1 H    0.940 --     3 N    0.921
     5   1 H    0.944 --     3 N    0.923
     6   7 N    3.464 --     2 C    1.372    10 H    0.923     9 H    0.921
                             3 N    0.137
     7   1 H    0.947 --     1 N    0.916
     8   1 H    0.947 --     1 N    0.918
     9   1 H    0.940 --     6 N    0.921
    10   1 H    0.943 --     6 N    0.923
 ---------------------------------------------------------------------------

Topologies differ in total number of bonds
Writing topology from bond orders to xtbtopo.mol

molecular dipole:
                 x           y           z       tot (Debye)
 q only:        0.088      -0.199       0.009
   full:        0.096      -0.217       0.030       0.609
molecular quadrupole (traceless):
                xx          xy          yy          xz          yz          zz
 q only:        3.573      -0.079       3.406      -0.277      -1.747      -6.979
  q+dip:        4.029      -0.435       4.183      -0.662      -2.371      -8.212
   full:        3.777      -0.468       3.967      -0.726      -2.301      -7.744

           -------------------------------------------------
          |                Geometry Summary                 |
           -------------------------------------------------

      molecular mass/u    :       60.0784900
   center of mass at/Å    :        0.0008196      -0.0027130       0.0147425
  moments of inertia/u·Å² :        0.4959321E+02   0.5134882E+02   0.9884226E+02
rotational constants/cm⁻¹ :        0.3399182E+00   0.3282964E+00   0.1705509E+00

 * 9 selected distances

     #   Z          #   Z                                           value/Å
     1   7 N        2   6 C                                       1.3502072 (max)
     2   6 C        3   7 N                                       1.3246722
     3   7 N        4   1 H                                       1.0090565
     3   7 N        5   1 H                                       1.0088476
     2   6 C        6   7 N                                       1.3238146
     1   7 N        7   1 H                                       1.0045738 (min)
     1   7 N        8   1 H                                       1.0049016
     6   7 N        9   1 H                                       1.0090304
     6   7 N       10   1 H                                       1.0089723

 * 2 distinct bonds (by element types)

   Z      Z             #   av. dist./Å        max./Å        min./Å
   1 H    7 N           6     1.0075637     1.0090565     1.0045738
   6 C    7 N           3     1.3328980     1.3502072     1.3238146


optimized geometry written to: xtbopt.xyz


           -------------------------------------------------
          | TOTAL ENERGY              -13.542689722133 Eh   |
          | GRADIENT NORM               0.000382378264 Eh/α |
          | HOMO-LUMO GAP               4.611925543584 eV   |
           -------------------------------------------------

------------------------------------------------------------------------
 * finished run on 2022/11/03 at 12:40:57.723     
------------------------------------------------------------------------
 total:
 * wall-time:     0 d,  0 h,  0 min,  2.607 sec
 *  cpu-time:     0 d,  0 h,  0 min, 20.718 sec
 * ratio c/w:     7.947 speedup
 SCF:
 * wall-time:     0 d,  0 h,  0 min,  0.290 sec
 *  cpu-time:     0 d,  0 h,  0 min,  2.317 sec
 * ratio c/w:     7.976 speedup
 ANC optimizer:
 * wall-time:     0 d,  0 h,  0 min,  2.261 sec
 *  cpu-time:     0 d,  0 h,  0 min, 17.964 sec
 * ratio c/w:     7.946 speedup

