10
 energy: -13.552158584870 gnorm: 0.029660828088 xtb: 6.5.1 (b24c23e)
N           -0.57793510000000        1.19029005000000       -0.20380557000000
C            0.00066331000000       -0.01195914000000       -0.06365638000000
N            1.33734199000000       -0.09696801000000        0.02848251000000
H            1.93027618000000        0.72269691000000       -0.00425136000000
H            1.81533951000000       -0.98259408000000        0.13494103000000
N           -0.75993687000000       -1.09722556000000        0.15210601000000
H           -0.16700579000000        1.91566546000000       -0.77770489000000
H           -1.44822669000000        1.42356769000000        0.25698147000000
H           -1.76865130000000       -1.04242488000000        0.21391099000000
H           -0.36182523000000       -2.02104244000000        0.26295017000000
10
 energy: -13.555625024845 gnorm: 0.075555948441 xtb: 6.5.1 (b24c23e)
N           -0.57799490364598        1.18782662617366       -0.18008681304117
C            0.00189501515234       -0.00325755334895       -0.00139226420667
N            1.32928312526135       -0.10052170585969        0.02028026414019
H            1.92255212677227        0.71124725960941       -0.09177478704498
H            1.79776082717471       -0.98481348778429        0.15050314419166
N           -0.75099106137683       -1.08844076729651        0.15819046116694
H           -0.13631629274267        1.91507138917245       -0.72170969827935
H           -1.47877588823917        1.40585155554246        0.22098416384211
H           -1.76078307246288       -1.04005988818474        0.15112645923215
H           -0.34658986589314       -2.00289742802379        0.29383304999910
10
 energy: -13.552752120306 gnorm: 0.448361607778 xtb: 6.5.1 (b24c23e)
N           -0.57477099749028        1.18511352881438       -0.15361121469424
C            0.00374986432888        0.00041137838530        0.04596624253562
N            1.32360585190226       -0.10164682424709        0.01476955328562
H            1.90873450316200        0.70359717142620       -0.17366643771942
H            1.78879365332411       -0.98121060640412        0.16607155223692
N           -0.74594048363372       -1.08208453745687        0.16672526432506
H           -0.10783690005005        1.91377792808156       -0.66943612614351
H           -1.50185187406913        1.38578249585341        0.18756483581882
H           -1.75361728966365       -1.03359388151909        0.09263720110553
H           -0.34082631781040       -1.99014065293370        0.32293310924960
10
 energy: -13.556347396730 gnorm: 0.021933487765 xtb: 6.5.1 (b24c23e)
N           -0.57479276999992        1.18795563463819       -0.16163172229934
C            0.00035630575409        0.00283100265856        0.04409920587439
N            1.32185371656598       -0.10156642510870        0.01433723268803
H            1.90860805483084        0.70303203789789       -0.16308270713423
H            1.78514230202926       -0.98302498061275        0.16530873782877
N           -0.74560624201867       -1.08575105012821        0.16289426971950
H           -0.10898908981950        1.91656365415970       -0.67663908710558
H           -1.49699041379066        1.39212578874553        0.19357128585587
H           -1.75344412364402       -1.03929854814246        0.10213490675132
H           -0.33609772990740       -1.99286111410774        0.31896185782127
10
 energy: -13.556378885497 gnorm: 0.023424449987 xtb: 6.5.1 (b24c23e)
N           -0.57648347378849        1.18768142287147       -0.16602495165286
C            0.00197759431183        0.00233727760917        0.03349910653705
N            1.32494261099358       -0.10153136211173        0.01460742132951
H            1.91060840960348        0.70271464758276       -0.14582705674669
H            1.78882010919343       -0.98357685850001        0.16183045221617
N           -0.74739589996384       -1.08569360416709        0.16276119002614
H           -0.11830944931916        1.91683247710211       -0.68567163922184
H           -1.49187812128206        1.39198853727902        0.19850158945513
H           -1.75208718057178       -1.03608727185794        0.11219392924241
H           -0.34015458917698       -1.99465926580776        0.31408393881498
10
 energy: -13.556412529844 gnorm: 0.005912857476 xtb: 6.5.1 (b24c23e)
N           -0.57564400809127        1.18806435964346       -0.16466298854030
C            0.00087650286916        0.00191301706039        0.03565027523581
N            1.32420883334683       -0.10069372023997        0.01498954833505
H            1.90780631995159        0.70342336771432       -0.14973311352019
H            1.78855297396913       -0.98240980789439        0.16235545302360
N           -0.74757695560724       -1.08698373278675        0.16237134642792
H           -0.11459702964957        1.91615428321860       -0.68405541292732
H           -1.49167432214582        1.39329115268365        0.19751827792471
H           -1.75223987088148       -1.03735807937759        0.11061396269726
H           -0.33967243376132       -1.99539484002172        0.31490663134346
10
 energy: -13.556415784092 gnorm: 0.002469746759 xtb: 6.5.1 (b24c23e)
N           -0.57553867303156        1.18789703407259       -0.16364903978009
C            0.00085591671925        0.00213989644505        0.03857951400966
N            1.32404610922237       -0.10083689384198        0.01453938604656
H            1.90740056892924        0.70349346568339       -0.15406789592362
H            1.78786353831796       -0.98261482152645        0.16318387307041
N           -0.74747369991673       -1.08689155780158        0.16293371891088
H           -0.11276757869867        1.91617671790904       -0.68136744730357
H           -1.49321452861395        1.39260449394815        0.19598204317957
H           -1.75239116602869       -1.03714157525623        0.10750104222679
H           -0.33874047689922       -1.99482075963200        0.31631878556339
10
 energy: -13.556416684229 gnorm: 0.001075025664 xtb: 6.5.1 (b24c23e)
N           -0.57554552562256        1.18779487844799       -0.16373199727015
C            0.00089313446870        0.00193849987856        0.03805516600572
N            1.32419295871134       -0.10079500115124        0.01448949626442
H            1.90699018735508        0.70378062582908       -0.15317268017948
H            1.78819142481555       -0.98249804222910        0.16294035893154
N           -0.74756031439177       -1.08705231654192        0.16280991046203
H           -0.11293583095298        1.91587942541437       -0.68182009765125
H           -1.49284655972933        1.39266610653460        0.19624642256149
H           -1.75227741103142       -1.03665426347792        0.10802528032598
H           -0.33906205362262       -1.99505391270443        0.31611212054970
10
 energy: -13.556416853028 gnorm: 0.000985269117 xtb: 6.5.1 (b24c23e)
N           -0.57547764340129        1.18767563118825       -0.16392280576948
C            0.00081930484396        0.00164019975231        0.03752374684759
N            1.32428170870681       -0.10067187105180        0.01459187120019
H            1.90623344374442        0.70422516417277       -0.15239650731190
H            1.78830618745625       -0.98243376955434        0.16265380153283
N           -0.74770564540677       -1.08736291006032        0.16278727876031
H           -0.11281842181697        1.91554221047519       -0.68219825901280
H           -1.49233235556728        1.39296206449504        0.19653650757584
H           -1.75221504647656       -1.03624295355210        0.10855910265397
H           -0.33905152208257       -1.99532776586500        0.31581924352345
