Generated by Psi4
        SP                        DF-MP2                      6-311G**
Number of atoms                            I               10
Charge                                     I                1
Multiplicity                               I                1
Number of electrons                        I               32
Number of alpha electrons                  I               16
Number of beta electrons                   I               16
Number of basis functions                  I              108
Number of independent functions            I              108
Atomic numbers                             I   N=          10
           7           6           7           1           1           7
           1           1           1           1
Nuclear charges                            R   N=          10
  7.00000000e+00  6.00000000e+00  7.00000000e+00  1.00000000e+00  1.00000000e+00
  7.00000000e+00  1.00000000e+00  1.00000000e+00  1.00000000e+00  1.00000000e+00
Current cartesian coordinates              R   N=          30
 -1.09264085e+00  2.24931761e+00 -3.24488870e-01  2.91738366e-06  2.22237265e-06
  3.56934495e-06  2.45265296e+00 -1.39981951e-01  5.68674771e-01  3.52926575e+00
  1.42719168e+00  7.65390483e-01  3.33011288e+00 -1.81869516e+00  8.25176084e-01
 -1.36002011e+00 -2.10933826e+00 -2.44182311e-01 -2.94755953e+00  2.41206540e+00
 -7.56472685e-01 -1.08204448e-01  3.87862408e+00 -1.51117488e-01 -3.22188275e+00
 -2.05991562e+00 -6.74107959e-01 -5.81655379e-01 -3.83926082e+00 -8.96081221e-03
Integer atomic weights                     I   N=          10
          14          12          14           1           1          14
           1           1           1           1
Real atomic weights                        R   N=          10
  1.40030740e+01  1.20000000e+01  1.40030740e+01  1.00782503e+00  1.00782503e+00
  1.40030740e+01  1.00782503e+00  1.00782503e+00  1.00782503e+00  1.00782503e+00
Number of primitive shells                 I              104
Number of contracted shells                I               56
Pure/Cartesian d shells                    I                0
Pure/Cartesian f shells                    I                0
Highest angular momentum                   I                2
Largest degree of contraction              I                6
Shell types                                I   N=          56
           0           0           1           0           1           0
           1          -2           0           0           1           0
           1           0           1          -2           0           0
           1           0           1           0           1          -2
           0           0           0           1           0           0
           0           1           0           0           1           0
           1           0           1          -2           0           0
           0           1           0           0           0           1
           0           0           0           1           0           0
           0           1
Number of primitives per shell             I   N=          56
           6           3           3           1           1           1
           1           1           6           3           3           1
           1           1           1           1           6           3
           3           1           1           1           1           1
           3           1           1           1           3           1
           1           1           6           3           3           1
           1           1           1           1           3           1
           1           1           3           1           1           1
           3           1           1           1           3           1
           1           1
Shell to atom map                          I   N=          56
           1           1           1           1           1           1
           1           1           2           2           2           2
           2           2           2           2           3           3
           3           3           3           3           3           3
           4           4           4           4           5           5
           5           5           6           6           6           6
           6           6           6           6           7           7
           7           7           8           8           8           8
           9           9           9           9          10          10
          10          10
Primitive exponents                        R   N=         104
  6.29348000e+03  9.49044000e+02  2.18776000e+02  6.36916000e+01  1.88282000e+01
  2.72023000e+00  3.06331000e+01  7.02614000e+00  2.11205000e+00  3.06331000e+01
  7.02614000e+00  2.11205000e+00  6.84009000e-01  6.84009000e-01  2.00878000e-01
  2.00878000e-01  9.13000000e-01  4.56324000e+03  6.82024000e+02  1.54973000e+02
  4.44553000e+01  1.30290000e+01  1.82773000e+00  2.09642000e+01  4.80331000e+00
  1.45933000e+00  2.09642000e+01  4.80331000e+00  1.45933000e+00  4.83456000e-01
  4.83456000e-01  1.45585000e-01  1.45585000e-01  6.26000000e-01  6.29348000e+03
  9.49044000e+02  2.18776000e+02  6.36916000e+01  1.88282000e+01  2.72023000e+00
  3.06331000e+01  7.02614000e+00  2.11205000e+00  3.06331000e+01  7.02614000e+00
  2.11205000e+00  6.84009000e-01  6.84009000e-01  2.00878000e-01  2.00878000e-01
  9.13000000e-01  3.38650000e+01  5.09479000e+00  1.15879000e+00  3.25840000e-01
  1.02741000e-01  7.50000000e-01  3.38650000e+01  5.09479000e+00  1.15879000e+00
  3.25840000e-01  1.02741000e-01  7.50000000e-01  6.29348000e+03  9.49044000e+02
  2.18776000e+02  6.36916000e+01  1.88282000e+01  2.72023000e+00  3.06331000e+01
  7.02614000e+00  2.11205000e+00  3.06331000e+01  7.02614000e+00  2.11205000e+00
  6.84009000e-01  6.84009000e-01  2.00878000e-01  2.00878000e-01  9.13000000e-01
  3.38650000e+01  5.09479000e+00  1.15879000e+00  3.25840000e-01  1.02741000e-01
  7.50000000e-01  3.38650000e+01  5.09479000e+00  1.15879000e+00  3.25840000e-01
  1.02741000e-01  7.50000000e-01  3.38650000e+01  5.09479000e+00  1.15879000e+00
  3.25840000e-01  1.02741000e-01  7.50000000e-01  3.38650000e+01  5.09479000e+00
  1.15879000e+00  3.25840000e-01  1.02741000e-01  7.50000000e-01
Contraction coefficients                   R   N=         104
  1.96978815e-03  1.49612859e-02  7.35005308e-02  2.48936766e-01  6.02459433e-01
  2.56201759e-01  1.11906080e-01  9.21666655e-01 -2.56919183e-03  3.83119186e-02
  2.37403116e-01  8.17592398e-01  1.00000000e+00  1.00000000e+00  1.00000000e+00
  1.00000000e+00  1.00000000e+00  1.96665025e-03  1.52306019e-02  7.61269097e-02
  2.60801033e-01  6.16462078e-01  2.21006028e-01  1.14660081e-01  9.19999648e-01
 -3.03068213e-03  4.02486927e-02  2.37593957e-01  8.15853851e-01  1.00000000e+00
  1.00000000e+00  1.00000000e+00  1.00000000e+00  1.00000000e+00  1.96978815e-03
  1.49612859e-02  7.35005308e-02  2.48936766e-01  6.02459433e-01  2.56201759e-01
  1.11906080e-01  9.21666655e-01 -2.56919183e-03  3.83119186e-02  2.37403116e-01
  8.17592398e-01  1.00000000e+00  1.00000000e+00  1.00000000e+00  1.00000000e+00
  1.00000000e+00  2.54938145e-02  1.90373109e-01  8.52161486e-01  1.00000000e+00
  1.00000000e+00  1.00000000e+00  2.54938145e-02  1.90373109e-01  8.52161486e-01
  1.00000000e+00  1.00000000e+00  1.00000000e+00  1.96978815e-03  1.49612859e-02
  7.35005308e-02  2.48936766e-01  6.02459433e-01  2.56201759e-01  1.11906080e-01
  9.21666655e-01 -2.56919183e-03  3.83119186e-02  2.37403116e-01  8.17592398e-01
  1.00000000e+00  1.00000000e+00  1.00000000e+00  1.00000000e+00  1.00000000e+00
  2.54938145e-02  1.90373109e-01  8.52161486e-01  1.00000000e+00  1.00000000e+00
  1.00000000e+00  2.54938145e-02  1.90373109e-01  8.52161486e-01  1.00000000e+00
  1.00000000e+00  1.00000000e+00  2.54938145e-02  1.90373109e-01  8.52161486e-01
  1.00000000e+00  1.00000000e+00  1.00000000e+00  2.54938145e-02  1.90373109e-01
  8.52161486e-01  1.00000000e+00  1.00000000e+00  1.00000000e+00
Coordinates of each shell                  R   N=         168
 -1.09264085e+00  2.24931761e+00 -3.24488870e-01 -1.09264085e+00  2.24931761e+00
 -3.24488870e-01 -1.09264085e+00  2.24931761e+00 -3.24488870e-01 -1.09264085e+00
  2.24931761e+00 -3.24488870e-01 -1.09264085e+00  2.24931761e+00 -3.24488870e-01
 -1.09264085e+00  2.24931761e+00 -3.24488870e-01 -1.09264085e+00  2.24931761e+00
 -3.24488870e-01 -1.09264085e+00  2.24931761e+00 -3.24488870e-01  2.91738366e-06
  2.22237265e-06  3.56934495e-06  2.91738366e-06  2.22237265e-06  3.56934495e-06
  2.91738366e-06  2.22237265e-06  3.56934495e-06  2.91738366e-06  2.22237265e-06
  3.56934495e-06  2.91738366e-06  2.22237265e-06  3.56934495e-06  2.91738366e-06
  2.22237265e-06  3.56934495e-06  2.91738366e-06  2.22237265e-06  3.56934495e-06
  2.91738366e-06  2.22237265e-06  3.56934495e-06  2.45265296e+00 -1.39981951e-01
  5.68674771e-01  2.45265296e+00 -1.39981951e-01  5.68674771e-01  2.45265296e+00
 -1.39981951e-01  5.68674771e-01  2.45265296e+00 -1.39981951e-01  5.68674771e-01
  2.45265296e+00 -1.39981951e-01  5.68674771e-01  2.45265296e+00 -1.39981951e-01
  5.68674771e-01  2.45265296e+00 -1.39981951e-01  5.68674771e-01  2.45265296e+00
 -1.39981951e-01  5.68674771e-01  3.52926575e+00  1.42719168e+00  7.65390483e-01
  3.52926575e+00  1.42719168e+00  7.65390483e-01  3.52926575e+00  1.42719168e+00
  7.65390483e-01  3.52926575e+00  1.42719168e+00  7.65390483e-01  3.33011288e+00
 -1.81869516e+00  8.25176084e-01  3.33011288e+00 -1.81869516e+00  8.25176084e-01
  3.33011288e+00 -1.81869516e+00  8.25176084e-01  3.33011288e+00 -1.81869516e+00
  8.25176084e-01 -1.36002011e+00 -2.10933826e+00 -2.44182311e-01 -1.36002011e+00
 -2.10933826e+00 -2.44182311e-01 -1.36002011e+00 -2.10933826e+00 -2.44182311e-01
 -1.36002011e+00 -2.10933826e+00 -2.44182311e-01 -1.36002011e+00 -2.10933826e+00
 -2.44182311e-01 -1.36002011e+00 -2.10933826e+00 -2.44182311e-01 -1.36002011e+00
 -2.10933826e+00 -2.44182311e-01 -1.36002011e+00 -2.10933826e+00 -2.44182311e-01
 -2.94755953e+00  2.41206540e+00 -7.56472685e-01 -2.94755953e+00  2.41206540e+00
 -7.56472685e-01 -2.94755953e+00  2.41206540e+00 -7.56472685e-01 -2.94755953e+00
  2.41206540e+00 -7.56472685e-01 -1.08204448e-01  3.87862408e+00 -1.51117488e-01
 -1.08204448e-01  3.87862408e+00 -1.51117488e-01 -1.08204448e-01  3.87862408e+00
 -1.51117488e-01 -1.08204448e-01  3.87862408e+00 -1.51117488e-01 -3.22188275e+00
 -2.05991562e+00 -6.74107959e-01 -3.22188275e+00 -2.05991562e+00 -6.74107959e-01
 -3.22188275e+00 -2.05991562e+00 -6.74107959e-01 -3.22188275e+00 -2.05991562e+00
 -6.74107959e-01 -5.81655379e-01 -3.83926082e+00 -8.96081221e-03 -5.81655379e-01
 -3.83926082e+00 -8.96081221e-03 -5.81655379e-01 -3.83926082e+00 -8.96081221e-03
 -5.81655379e-01 -3.83926082e+00 -8.96081221e-03
Total Energy                               R     -2.052494287855680e+02
Alpha Orbital Energies                     R   N=         108
 -1.57969713e+01 -1.57969702e+01 -1.57969312e+01 -1.16129957e+01 -1.54846856e+00
 -1.40030149e+00 -1.40029880e+00 -1.07986823e+00 -9.83261565e-01 -9.83259647e-01
 -8.68026096e-01 -8.68021275e-01 -8.67388569e-01 -8.14539828e-01 -6.30226915e-01
 -6.30225809e-01 -4.46639423e-02 -6.35869408e-04 -6.35421220e-04  2.48256268e-03
  3.25549660e-02  3.25558813e-02  1.00753183e-01  1.98484114e-01  2.61144194e-01
  2.61146453e-01  3.60522521e-01  3.60526887e-01  3.83200195e-01  3.98729889e-01
  4.10357836e-01  4.48569840e-01  4.48572325e-01  5.48997579e-01  5.80627533e-01
  5.80628293e-01  6.23954460e-01  6.23956204e-01  7.04273660e-01  7.23178574e-01
  7.65209314e-01  7.65210795e-01  8.98494801e-01  8.98500322e-01  1.05357511e+00
  1.05733813e+00  1.12451433e+00  1.12451535e+00  1.20847516e+00  1.25792110e+00
  1.25792259e+00  1.26226157e+00  1.26226577e+00  1.56021039e+00  1.63120329e+00
  1.63121044e+00  1.68276239e+00  1.72668034e+00  1.73296621e+00  1.73296927e+00
  1.75993226e+00  1.75994000e+00  1.76693524e+00  1.76693759e+00  1.80940288e+00
  1.97415304e+00  2.09308888e+00  2.09309310e+00  2.17369896e+00  2.30450151e+00
  2.30450295e+00  2.34761674e+00  2.43851943e+00  2.43852992e+00  2.44158983e+00
  2.51974687e+00  2.54621626e+00  2.54622115e+00  2.79826228e+00  2.79826862e+00
  2.80741687e+00  2.85793484e+00  2.85793708e+00  2.92526450e+00  2.94941534e+00
  2.96903261e+00  2.96904619e+00  3.07073287e+00  3.16219406e+00  3.16221110e+00
  3.16952236e+00  3.71111073e+00  3.71111546e+00  3.73072038e+00  3.73074314e+00
  3.99316304e+00  3.99316378e+00  4.02856834e+00  4.80888777e+00  5.01026262e+00
  5.01027271e+00  5.02235415e+00  5.43224332e+00  5.43225209e+00  2.46586894e+01
  3.66923098e+01  3.69280949e+01  3.69281052e+01
Alpha MO coefficients                      R   N=       11664
  2.75853788e-01  2.31627489e-01  8.31304694e-05 -1.59137421e-04  2.42619322e-05
  2.80303734e-03 -2.72772920e-05  6.18987559e-05 -8.27691399e-06 -1.06673352e-03
  3.25550977e-04  5.65102912e-04  5.64872624e-05 -2.47207714e-06 -3.71634192e-06
  5.30855553e-06 -1.57606392e-05  2.57743785e-05 -6.32547988e-07  7.01668519e-07
 -1.45024903e-04  2.99943514e-05 -3.43314199e-05 -6.13047093e-06 -2.27825533e-04
  4.71181607e-05 -5.39432175e-05 -1.65884805e-05 -1.72826046e-03  3.57448942e-04
 -4.09126277e-04 -4.65427755e-06 -2.30689209e-05 -4.05030898e-06 -1.03531297e-04
 -2.55894588e-06 -4.56148043e-01 -3.83016426e-01  2.90794705e-04 -1.75667348e-05
  6.73577229e-05 -4.63140729e-03 -1.09270792e-04  5.77656224e-06 -2.52892924e-05
  1.73313024e-03 -5.68396698e-04 -6.74549391e-05 -1.28551682e-04  4.03727822e-06
  2.80469811e-06 -8.86835867e-07  1.75063591e-05 -7.22443722e-06 -1.88237560e-04
  9.17602921e-05 -3.20030968e-05  2.70902751e-06 -6.64781662e-05  2.78057369e-06
 -1.83449314e-04  7.07169229e-06 -1.79843870e-05  1.63517579e-05  5.51254403e-05
  1.96418021e-06  1.63390969e-01  1.37195229e-01  6.30082851e-05  8.63384942e-05
  1.16440698e-05  1.66083303e-03 -1.93280665e-05 -3.54298206e-05 -3.28066569e-06
 -6.36563871e-04  4.12540571e-04 -5.32751498e-04  1.12211672e-04 -1.71819217e-06
 -5.32276657e-06 -5.38182454e-06 -2.77747164e-05 -1.92093414e-05  9.93972357e-05
  2.03456295e-04 -2.46528304e-05  2.67185388e-06 -2.48768220e-05  1.42536806e-06
  1.25788584e-04 -2.63091689e-04  5.25781975e-05  5.18906334e-05  3.94882933e-05
  1.06460162e-05  5.11526115e-05  2.57973587e-04 -3.76477981e-05  2.24369331e-05
  1.39275806e-05  4.71198314e-06  8.23327651e-05 -2.93270249e-04  5.36021361e-05
  3.55952627e-05 -4.44196906e-05  9.62418517e-06  3.60503235e-01  3.02705759e-01
  9.87735651e-05 -2.12739812e-04  2.95922843e-05  3.66069677e-03 -4.02403818e-05
  7.83140749e-05 -1.17893584e-05 -1.37327074e-03 -5.75950921e-04  2.13613158e-04
 -1.39425980e-04 -1.25529536e-06  6.93103809e-06  3.46644206e-07  2.61328205e-05
 -1.65654275e-06  3.06073830e-07 -3.40090972e-07  3.02862625e-05  1.48970233e-04
  2.11909759e-06  2.96840881e-06  4.75776006e-05  2.34057196e-04  3.33205243e-06
  8.02736956e-06  3.60920687e-04  1.77535261e-03  2.52508541e-05  1.49510713e-06
  3.73700744e-06 -2.37021118e-05  2.56877178e-06 -1.03519527e-04  6.75996853e-02
  5.67618611e-02 -4.34610264e-05 -4.24174215e-06 -9.84380017e-06  6.85892223e-04
  1.59587070e-05 -4.13554991e-06  3.80044949e-06 -2.52934566e-04  3.96915042e-05
 -6.95474420e-04  3.17569754e-05 -4.27091565e-07 -2.12115646e-07 -8.23355717e-06
 -6.78808895e-06 -3.46889572e-05  1.08766412e-05  2.86512396e-04 -4.46975100e-05
 -2.44695025e-05 -2.51293040e-05 -4.81594758e-06  4.41197321e-05 -3.01184058e-04
  5.25901033e-05  1.71808632e-05 -4.56853282e-05  5.44414045e-06 -4.19917449e-01
 -3.52594272e-01 -1.46569219e-04 -2.31835165e-04 -2.60676595e-05 -4.26546478e-03
  5.68438885e-05  8.59658627e-05  1.02463546e-05  1.61177232e-03  5.00803378e-04
  3.07540157e-04  1.05193375e-04  1.56574159e-06 -5.57672543e-06  1.89132599e-06
 -1.87187919e-05  1.03028186e-05  1.57295805e-04 -2.22603714e-04  4.99207874e-05
 -6.40200782e-05 -2.66598381e-05 -1.38623452e-05  1.36531287e-04  1.44524014e-04
 -1.08515845e-05  3.21540526e-05 -7.62743613e-06  7.64373792e-06 -1.77499016e-04
  1.55713223e-04 -4.02580163e-05  5.58649398e-05 -3.88850682e-05  1.41213550e-05
 -1.65021496e-04 -6.48562987e-05 -3.74684614e-06 -4.42069857e-05  8.75757945e-06
 -1.04505192e-05  3.23739144e-01  2.71843963e-01  8.80614867e-05 -1.80974459e-04
  2.61002160e-05  3.20865335e-03 -3.18806816e-05  6.57651952e-05 -9.46019523e-06
 -5.74545138e-04 -7.24770249e-05  1.79037029e-04 -2.24987742e-05 -1.84995968e-05
  7.73149616e-06 -4.66658257e-07  1.67014187e-07  2.73944164e-06  3.60661464e-05
 -4.01792774e-05 -2.79104278e-06 -7.37671593e-07 -6.17668519e-07  3.50062451e-04
 -4.40657047e-06 -1.16115395e-06 -9.78699058e-07  9.45878135e-04 -3.32878354e-05
 -8.79115276e-06 -7.36818161e-06  8.78178002e-06 -4.06482711e-06  6.45315592e-07
 -1.43429831e-06  7.17175981e-07  3.13407343e-01  2.63168607e-01 -1.90809602e-04
  1.09309783e-05 -4.41756371e-05  3.10374715e-03  6.91875507e-05 -3.93201769e-06
  1.60215704e-05 -5.35058573e-04  1.76149651e-04 -5.91926678e-06  4.07127653e-05
 -1.85520099e-05  7.06344323e-06 -1.03299228e-06 -2.99226787e-06  7.13144100e-07
  1.20571974e-04 -3.79753344e-05  5.80216533e-05 -5.13302829e-06  4.60118200e-05
 -2.67383323e-06  1.20374532e-04 -3.44676286e-05  5.74435683e-05 -1.09532097e-05
 -4.46682623e-05 -1.06266079e-06  3.28386443e-01  2.75746187e-01  1.11193006e-04
  1.72266554e-04  1.98914823e-05  3.25584866e-03 -4.03367434e-05 -6.26290822e-05
 -7.21706281e-06 -5.92318904e-04 -1.00387405e-04 -1.72251824e-04 -1.74926178e-05
 -1.84762570e-05  7.82800445e-06 -1.68238000e-06 -1.81787365e-07 -2.51026393e-06
  1.24364759e-04 -3.17057090e-05  5.73527335e-05 -3.64092308e-05 -2.87693085e-05
 -7.44059286e-06  1.25003071e-04 -4.29708603e-05  5.92209359e-05  4.49728713e-05
  1.42050935e-05  9.87971000e-06  1.26358467e-04 -3.39460218e-05  5.78922873e-05
 -3.33259547e-05  3.31414525e-05 -8.74737274e-06  1.26798063e-04 -4.17319910e-05
  5.91789137e-05  4.33807664e-05 -1.92535955e-05  1.06000038e-05 -1.62916918e-04
 -2.30283699e-04  8.03971318e-05 -1.65506473e-04  2.38752105e-05  4.65824453e-04
  1.89962300e-04 -3.91058838e-04  5.64183932e-05 -6.51195118e-04 -1.59279078e-04
  3.27845397e-04 -4.73005210e-05  1.79373443e-05 -2.94998630e-05 -3.77005127e-05
 -1.13276963e-04 -1.53073358e-04  5.63534376e-01  4.66634088e-01  1.71652300e-08
  9.06396767e-09  1.98179632e-08  3.36237960e-03  2.06599764e-08 -5.58741236e-09
 -5.62169434e-09  1.41354456e-03  5.84722924e-08 -5.75905294e-09  1.67756292e-08
 -4.59028022e-04  1.87949022e-04 -2.65830853e-05 -2.11667331e-05  6.10923277e-06
 -1.62925979e-04 -2.30294618e-04 -1.80479033e-04  1.03006605e-05 -4.18448900e-05
  4.65844779e-04 -4.26411893e-04  2.43416446e-05 -9.88722423e-05 -6.51284184e-04
  3.57540782e-04 -2.03931028e-05  8.28961369e-05  2.95738910e-05  3.45788595e-05
  2.35746540e-06  1.90473388e-04 -2.28221153e-05  1.98036879e-05  6.37865013e-05
 -2.93788494e-05 -8.28132196e-05 -2.13830818e-05 -1.83535061e-05  1.98042196e-05
  6.38051754e-05 -2.93774495e-05 -7.96232468e-05  3.06583755e-05 -1.93126811e-05
 -1.62915212e-04 -2.30281449e-04  1.00070743e-04  1.55205148e-04  1.79655708e-05
  4.65821207e-04  2.36449493e-04  3.66720464e-04  4.24592445e-05 -6.51203811e-04
 -1.98236269e-04 -3.07445520e-04 -3.55910626e-05  1.55019070e-05 -3.08841771e-05
  3.89902303e-05 -7.42856306e-05  1.75054318e-04  1.98033683e-05  6.37884273e-05
 -2.93713911e-05  5.89425312e-05 -6.27242036e-05  1.55988751e-05  1.98044322e-05
  6.38071459e-05 -2.93715379e-05  1.34137450e-05 -8.62407653e-05  5.89212896e-06
  1.98046243e-05  6.38035292e-05 -2.93693481e-05  6.62047600e-05  5.55790353e-05
  1.34210847e-05  1.98039851e-05  6.38020957e-05 -2.93723508e-05  2.38641577e-05
  8.41123626e-05  2.75447761e-06  5.45827062e-02  9.01666810e-02 -1.20728379e-02
  2.48518912e-02 -3.58483091e-03 -2.39350659e-01 -2.18307823e-02  4.49391124e-02
 -6.48242351e-03 -1.60449662e-01 -1.05910559e-02  2.18001435e-02 -3.14492884e-03
  6.91536530e-03 -1.97270449e-03  1.90197785e-03  4.74149441e-03  5.83138507e-03
  7.70531986e-02  1.26710086e-01 -3.29894629e-06 -3.89927198e-08 -6.16989278e-07
 -3.42681293e-01 -4.07578676e-06  2.90418377e-08 -7.21368524e-07 -3.81186603e-02
  1.70268787e-06  3.80880002e-07  5.27834972e-07  1.93150181e-02 -7.90842841e-03
  1.11857228e-03  8.90793508e-04 -2.57093460e-04  5.45857971e-02  9.01717793e-02
  2.71005275e-02 -1.54654981e-03  6.28279632e-03 -2.39363906e-01  4.90045333e-02
 -2.79674365e-03  1.13610337e-02 -1.60459554e-01  2.37734366e-02 -1.35665074e-03
  5.51162733e-03  6.46474125e-03 -4.45657678e-03  3.49362738e-04 -7.03154265e-03
  7.83185360e-04 -3.10717544e-02 -3.02635500e-02  4.33406720e-03  6.32188730e-03
  7.98369662e-03  1.19467987e-03 -3.10722732e-02 -3.02636554e-02  4.33422537e-03
  5.30154849e-03 -8.64726215e-03  1.50102120e-03  5.45823807e-02  9.01661444e-02
 -1.50268057e-02 -2.33052408e-02 -2.69712882e-03 -2.39349272e-01 -2.71726113e-02
 -4.21423385e-02 -4.87734718e-03 -1.60448250e-01 -1.31815886e-02 -2.04434037e-02
 -2.36614866e-03  7.00977625e-03 -1.91908061e-03 -1.07049571e-03  3.23022771e-03
 -6.88590189e-03 -3.10700118e-02 -3.02618982e-02  4.33408340e-03 -9.86238495e-03
  1.57263217e-03 -2.31976748e-03 -3.10706776e-02 -3.02616687e-02  4.33428450e-03
  4.68482609e-03  9.08648864e-03  7.81693895e-04 -3.10702501e-02 -3.02615310e-02
  4.33435005e-03 -9.98580918e-03 -4.39598766e-04 -2.28283491e-03 -3.10703175e-02
 -3.02616838e-02  4.33419627e-03  3.54114195e-03 -9.55594881e-03  1.12496150e-03
  5.68640834e-02  9.40542619e-02  6.83258409e-03  1.02625617e-02  1.23844158e-03
 -2.47879771e-01  1.20644461e-02  1.46316545e-02  2.30018885e-03 -2.09414185e-01
  1.23644102e-02  3.17760709e-02  1.81049643e-03  6.30251525e-03 -1.81819108e-03
  2.93080403e-04  3.32639844e-03 -8.01169631e-04  1.20136094e-06  2.06322033e-06
  9.00930186e-02 -1.99378903e-02  2.13708860e-02 -5.90453355e-06  1.45083005e-01
 -3.21074618e-02  3.44151580e-02 -2.37119281e-06 -5.15170521e-02  1.14010056e-02
 -1.22197291e-02  1.17850411e-03  6.07686117e-03  1.14810091e-03  2.72484521e-02
  1.04108856e-03 -8.92982376e-02 -1.47700953e-01 -9.34980626e-03 -1.64154464e-03
 -2.09527103e-03  3.89264954e-01 -1.17127925e-02 -2.86011049e-03 -2.59781092e-03
  3.28861393e-01 -3.50681889e-02 -3.11423608e-03 -7.96366828e-03 -9.59064418e-03
  4.40139182e-03 -4.15066596e-04  1.56375034e-03  4.68996734e-04  6.44462268e-02
  6.74540469e-02 -5.47908113e-04 -1.02660771e-02 -1.46225469e-02 -1.88609538e-03
  6.66198615e-02  6.67154256e-02 -1.89547545e-04 -8.64001754e-03  1.58097886e-02
 -2.50208131e-03  3.24379959e-02  5.36530549e-02  8.69115975e-03 -9.98804793e-03
  2.32475336e-03 -1.41402533e-01  1.47953557e-02 -1.51244914e-02  3.89640383e-03
 -1.19459350e-01  1.78112794e-02 -2.75794583e-02  4.99433567e-03  3.65582380e-03
 -6.88730174e-04  4.80096102e-04  3.60571259e-03  6.56975917e-04 -4.71451438e-02
 -4.08761218e-02 -6.58146260e-04 -1.16555135e-02  1.57409588e-03 -2.73223284e-03
 -3.63159150e-02 -4.45608803e-02  1.12803207e-03  5.82182233e-03  9.22855252e-03
  1.03856246e-03 -3.03064579e-02 -2.21569857e-02 -9.38172256e-04 -7.05872254e-03
 -3.67012518e-04 -1.61176094e-03 -1.73038414e-02 -2.65806856e-02  1.20630211e-03
  2.72600146e-03 -5.18857832e-03  7.95516151e-04  7.02840297e-02  1.16251103e-01
 -1.08755341e-02  2.70417484e-03 -2.58850395e-03 -3.06379377e-01 -1.64319178e-02
  1.89335133e-03 -3.83949383e-03 -2.58838011e-01 -3.01669773e-02  1.57998740e-02
 -7.45209884e-03  7.54034218e-03 -3.40840729e-03  1.01214459e-03 -5.85184892e-04
  2.51950519e-03 -2.32220327e-07 -4.09316687e-07 -2.00978326e-02 -9.25431424e-02
 -1.61198524e-03  1.21615376e-06 -3.23651975e-02 -1.49029747e-01 -2.59597618e-03
  6.10891693e-07  1.14921471e-02  5.29193590e-02  9.21452038e-04 -3.89618909e-04
 -1.07515443e-03  6.22425602e-03 -1.04665798e-03  2.72401688e-02  1.41021448e-02
  2.33252110e-02  6.13624284e-04 -1.38060944e-02  5.89994461e-04 -6.14734790e-02
  4.49791597e-04 -2.23662987e-02  8.30592415e-04 -5.19342416e-02  3.50807461e-03
 -3.25936743e-02  1.86709339e-03  1.48703003e-03 -7.10699356e-04  9.31659158e-04
  1.93512885e-04  3.63242182e-03 -1.72288788e-02 -8.25369482e-03 -1.07649613e-03
  2.42191408e-03  2.61377251e-03  4.72071446e-04 -3.46925282e-03 -1.29344963e-02
  1.19296285e-03  6.06587585e-04 -2.10323536e-03  2.08055355e-04 -8.43870541e-02
 -1.39577769e-01  8.88423189e-03  4.75809374e-03  1.88664234e-03  3.67856822e-01
  1.26027443e-02  4.91142533e-03  2.73554762e-03  3.10775056e-01  2.77499418e-02
  2.18187469e-02  5.67171036e-03 -9.14894174e-03  3.78392256e-03 -2.95200013e-06
  6.52214868e-05  2.34085832e-03 -4.71983840e-02 -5.42908264e-02  1.01269945e-03
 -1.33817368e-02  1.07095863e-03 -3.11300313e-03 -5.59602682e-02 -5.13102340e-02
 -4.32309500e-04  7.12995980e-03  1.27763018e-02  1.22399328e-03  5.94301701e-02
  6.42455459e-02 -7.60661048e-04  1.63923495e-02 -3.63553169e-04  3.78271421e-03
  6.44279608e-02  6.25447886e-02  6.36159425e-05 -6.68341549e-03  1.58693451e-02
 -2.05288918e-03  2.69541905e-02  4.50420430e-02  4.40697145e-02 -9.07193003e-02
  1.30895004e-02 -1.21709579e-01  7.05376212e-02 -1.45204749e-01  2.09509690e-02
 -1.15108212e-01  3.25899546e-02 -6.70850353e-02  9.67977501e-03  1.38687588e-03
 -2.20564200e-03 -2.78270446e-03 -8.37005036e-03 -1.13150791e-02 -7.09267080e-02
 -1.19303871e-01  4.47902189e-06  1.02795858e-06  1.30383471e-06  3.51854181e-01
  6.11558574e-06  1.59787959e-06  1.96747354e-06  1.42767470e-01 -2.90508551e-07
 -8.92498551e-08 -1.87875031e-07 -1.16562023e-02  4.77205472e-03 -6.75123041e-04
 -5.37385146e-04  1.55078011e-04  2.69545383e-02  4.50426329e-02 -9.89281066e-02
  5.64700941e-03 -2.29399544e-02 -1.21711170e-01 -1.58343177e-01  9.03857799e-03
 -3.67174363e-02 -1.15109847e-01 -7.31564660e-02  4.17578242e-03 -1.69636091e-02
  2.24680341e-03  2.53043245e-03  1.77805136e-04  1.40821426e-02 -1.68782248e-03
 -6.29539025e-02 -7.96787089e-02 -8.71962076e-03  4.80960055e-03  1.22615282e-02
  7.07796832e-04 -6.29540682e-02 -7.96789957e-02 -8.71986169e-03  3.27662857e-03
 -1.27230221e-02  1.16798289e-03  2.69541248e-02  4.50419325e-02  5.48512498e-02
  8.50718434e-02  9.85141520e-03 -1.21709293e-01  8.77947123e-02  1.36165595e-01
  1.57681678e-02 -1.15108000e-01  4.05616342e-02  6.29090284e-02  7.28497511e-03
  1.20674408e-03 -2.30804032e-03  2.88487765e-03 -5.48767953e-03  1.29382047e-02
 -6.29518780e-02 -7.96757583e-02 -8.71945042e-03 -1.27282636e-02 -1.93610036e-03
 -2.86483503e-03 -6.29493084e-02 -7.96735498e-02 -8.71990759e-03  9.12593120e-03
  9.35142378e-03  1.79447107e-03 -6.29493918e-02 -7.96731697e-02 -8.71976163e-03
 -1.24020775e-02  3.37064606e-03 -2.96264430e-03 -6.29492550e-02 -7.96731035e-02
 -8.71965438e-03  7.91875996e-03 -1.03243384e-02  2.15669286e-03  9.33473485e-03
  1.55376906e-02 -3.41011416e-02 -1.13589602e-01 -4.14603230e-03 -4.23630810e-02
 -5.24800349e-02 -1.80411621e-01 -6.19804373e-03 -4.15649374e-02 -4.54357341e-02
 -1.11870733e-01 -6.80882215e-03 -2.08699087e-04 -7.32585589e-04 -2.54846649e-03
 -4.92640716e-03 -1.03463401e-02 -1.86837954e-06 -3.22263971e-06 -1.13410374e-01
  4.32579916e-02 -2.74910645e-02  9.80925864e-06 -1.79440217e-01  6.84438924e-02
 -4.34965953e-02  6.39712765e-06 -2.36719259e-02  9.02883497e-03 -5.73849439e-03
  1.78376154e-04  9.42709579e-04  3.25395637e-04  4.31177400e-03  7.90301420e-04
 -1.21607582e-02 -2.02416051e-02  1.11170544e-01  2.92015246e-02  2.46230389e-02
  5.51882512e-02  1.77514350e-01  4.56562828e-02  3.93489907e-02  5.41492786e-02
  1.02824975e-01  3.38581540e-02  2.25524962e-02 -5.02334610e-04 -3.38248877e-03
  1.49516419e-04 -1.44148923e-02  2.69960824e-03  7.67808994e-02  9.38887858e-02
  8.38435327e-03 -3.87477915e-03 -1.30425650e-02 -4.67384159e-04  3.26578905e-02
  4.27100045e-02  4.07998917e-03  3.47113710e-03  8.22047486e-03  5.30836782e-04
  2.82778463e-03  4.70686017e-03 -8.11270737e-02  8.59394437e-02 -2.14541193e-02
 -1.28330972e-02 -1.26931654e-01  1.35484257e-01 -3.36003224e-02 -1.25918876e-02
 -9.34289942e-02  9.17624704e-02 -2.44728888e-02 -2.13673615e-05  2.46382557e-04
  1.06288752e-03  1.62924990e-03  4.40322884e-03  8.81380207e-03  6.51497962e-03
  1.73031406e-04  6.80509290e-04 -7.55456338e-03  4.02421681e-04 -9.28149324e-02
 -1.11363561e-01 -9.74066518e-03  9.01059079e-03  1.26548564e-02  1.66040925e-03
  6.01544963e-02  6.86499354e-02  5.65964821e-03  9.95008218e-03  5.54587181e-03
  2.10868580e-03 -8.55996676e-02 -1.00410296e-01 -8.55829313e-03  3.00932159e-03
 -1.43105445e-02  1.15702455e-03  8.65367857e-03  1.44040730e-02  1.11537273e-01
 -3.13608218e-02  2.66754654e-02 -3.92724727e-02  1.76014067e-01 -5.12027382e-02
  4.21515425e-02 -3.85313665e-02  1.17864947e-01 -2.10727444e-02  2.77960782e-02
 -3.86656939e-04 -1.57637593e-03 -1.86121089e-03 -8.19123099e-03 -6.88184188e-03
  1.22559302e-06  2.10302768e-06  4.30078766e-02  1.16625166e-01  6.09716933e-03
 -6.38267232e-06  6.80481656e-02  1.84527749e-01  9.64691011e-03 -3.66209088e-06
  8.97695065e-03  2.43412169e-02  1.27294047e-03 -8.88085958e-05 -3.10408185e-04
  9.64875255e-04 -7.90693695e-04  4.31247604e-03  3.75618753e-03  6.25216971e-03
 -2.66344148e-02  1.16590287e-01 -9.92006559e-03 -1.70463235e-02 -4.27399364e-02
  1.83034341e-01 -1.57866372e-02 -1.67252291e-02 -2.31502513e-02  1.29924624e-01
 -9.55266925e-03  1.29573865e-04  1.03051796e-03  7.61196174e-04  4.86278267e-03
  2.61419682e-03  5.45122987e-02  6.17368263e-02  5.04178041e-03 -1.00019353e-02
 -3.92214124e-03 -2.17336463e-03 -8.83181342e-02 -1.03932383e-01 -8.89176889e-03
  9.07614548e-03 -1.17087492e-02  2.46906849e-03 -1.24113285e-02 -2.06587013e-02
 -8.33600322e-02 -8.10474121e-02 -1.65399156e-02  5.63255536e-02 -1.32548557e-01
 -1.29867011e-01 -2.62673055e-02  5.52631643e-02 -8.10437016e-02 -7.17810412e-02
 -1.63087808e-02  6.22373193e-04  1.82041490e-03 -2.85802630e-03  6.57671838e-03
 -1.34387579e-02 -9.37487143e-02 -1.12176370e-01 -9.78161203e-03 -1.53195305e-02