Generated by Psi4
        SP                        DF-MP2                   AUG-CC-PVTZ
Number of atoms                            I               10
Charge                                     I                1
Multiplicity                               I                1
Number of electrons                        I               32
Number of alpha electrons                  I               16
Number of beta electrons                   I               16
Number of basis functions                  I              322
Number of independent functions            I              322
Atomic numbers                             I   N=          10
           7           6           7           1           1           7
           1           1           1           1
Nuclear charges                            R   N=          10
  7.00000000e+00  6.00000000e+00  7.00000000e+00  1.00000000e+00  1.00000000e+00
  7.00000000e+00  1.00000000e+00  1.00000000e+00  1.00000000e+00  1.00000000e+00
Current cartesian coordinates              R   N=          30
 -1.09264085e+00  2.24931761e+00 -3.24488870e-01  2.91738366e-06  2.22237265e-06
  3.56934495e-06  2.45265296e+00 -1.39981951e-01  5.68674771e-01  3.52926575e+00
  1.42719168e+00  7.65390483e-01  3.33011288e+00 -1.81869516e+00  8.25176084e-01
 -1.36002011e+00 -2.10933826e+00 -2.44182311e-01 -2.94755953e+00  2.41206540e+00
 -7.56472685e-01 -1.08204448e-01  3.87862408e+00 -1.51117488e-01 -3.22188275e+00
 -2.05991562e+00 -6.74107959e-01 -5.81655379e-01 -3.83926082e+00 -8.96081221e-03
Integer atomic weights                     I   N=          10
          14          12          14           1           1          14
           1           1           1           1
Real atomic weights                        R   N=          10
  1.40030740e+01  1.20000000e+01  1.40030740e+01  1.00782503e+00  1.00782503e+00
  1.40030740e+01  1.00782503e+00  1.00782503e+00  1.00782503e+00  1.00782503e+00
Number of primitive shells                 I              186
Number of contracted shells                I              110
Pure/Cartesian d shells                    I                0
Pure/Cartesian f shells                    I                0
Highest angular momentum                   I                3
Largest degree of contraction              I                8
Shell types                                I   N=         110
           0           0           0           0           1           1
           1          -2          -2          -3           0           1
          -2          -3           0           0           0           0
           1           1           1          -2          -2          -3
           0           1          -2          -3           0           0
           0           0           1           1           1          -2
          -2          -3           0           1          -2          -3
           0           0           0           1           1          -2
           0           1          -2           0           0           0
           1           1          -2           0           1          -2
           0           0           0           0           1           1
           1          -2          -2          -3           0           1
          -2          -3           0           0           0           1
           1          -2           0           1          -2           0
           0           0           1           1          -2           0
           1          -2           0           0           0           1
           1          -2           0           1          -2           0
           0           0           1           1          -2           0
           1          -2
Number of primitives per shell             I   N=         110
           8           8           1           1           3           1
           1           1           1           1           1           1
           1           1           8           8           1           1
           3           1           1           1           1           1
           1           1           1           1           8           8
           1           1           3           1           1           1
           1           1           1           1           1           1
           3           1           1           1           1           1
           1           1           1           3           1           1
           1           1           1           1           1           1
           8           8           1           1           3           1
           1           1           1           1           1           1
           1           1           3           1           1           1
           1           1           1           1           1           3
           1           1           1           1           1           1
           1           1           3           1           1           1
           1           1           1           1           1           3
           1           1           1           1           1           1
           1           1
Shell to atom map                          I   N=         110
           1           1           1           1           1           1
           1           1           1           1           1           1
           1           1           2           2           2           2
           2           2           2           2           2           2
           2           2           2           2           3           3
           3           3           3           3           3           3
           3           3           3           3           3           3
           4           4           4           4           4           4
           4           4           4           5           5           5
           5           5           5           5           5           5
           6           6           6           6           6           6
           6           6           6           6           6           6
           6           6           7           7           7           7
           7           7           7           7           7           8
           8           8           8           8           8           8
           8           8           9           9           9           9
           9           9           9           9           9          10
          10          10          10          10          10          10
          10          10
Primitive exponents                        R   N=         186
  1.14200000e+04  1.71200000e+03  3.89300000e+02  1.10000000e+02  3.55700000e+01
  1.25400000e+01  4.64400000e+00  5.11800000e-01  1.14200000e+04  1.71200000e+03
  3.89300000e+02  1.10000000e+02  3.55700000e+01  1.25400000e+01  4.64400000e+00
  5.11800000e-01  1.29300000e+00  1.78700000e-01  2.66300000e+01  5.94800000e+00
  1.74200000e+00  5.55000000e-01  1.72500000e-01  1.65400000e+00  4.69000000e-01
  1.09300000e+00  5.76000000e-02  4.91000000e-02  1.51000000e-01  3.64000000e-01
  8.23600000e+03  1.23500000e+03  2.80800000e+02  7.92700000e+01  2.55900000e+01
  8.99700000e+00  3.31900000e+00  3.64300000e-01  8.23600000e+03  1.23500000e+03
  2.80800000e+02  7.92700000e+01  2.55900000e+01  8.99700000e+00  3.31900000e+00
  3.64300000e-01  9.05900000e-01  1.28500000e-01  1.87100000e+01  4.13300000e+00
  1.20000000e+00  3.82700000e-01  1.20900000e-01  1.09700000e+00  3.18000000e-01
  7.61000000e-01  4.40200000e-02  3.56900000e-02  1.00000000e-01  2.68000000e-01
  1.14200000e+04  1.71200000e+03  3.89300000e+02  1.10000000e+02  3.55700000e+01
  1.25400000e+01  4.64400000e+00  5.11800000e-01  1.14200000e+04  1.71200000e+03
  3.89300000e+02  1.10000000e+02  3.55700000e+01  1.25400000e+01  4.64400000e+00
  5.11800000e-01  1.29300000e+00  1.78700000e-01  2.66300000e+01  5.94800000e+00
  1.74200000e+00  5.55000000e-01  1.72500000e-01  1.65400000e+00  4.69000000e-01
  1.09300000e+00  5.76000000e-02  4.91000000e-02  1.51000000e-01  3.64000000e-01
  3.38700000e+01  5.09500000e+00  1.15900000e+00  3.25800000e-01  1.02700000e-01
  1.40700000e+00  3.88000000e-01  1.05700000e+00  2.52600000e-02  1.02000000e-01
  2.47000000e-01  3.38700000e+01  5.09500000e+00  1.15900000e+00  3.25800000e-01
  1.02700000e-01  1.40700000e+00  3.88000000e-01  1.05700000e+00  2.52600000e-02
  1.02000000e-01  2.47000000e-01  1.14200000e+04  1.71200000e+03  3.89300000e+02
  1.10000000e+02  3.55700000e+01  1.25400000e+01  4.64400000e+00  5.11800000e-01
  1.14200000e+04  1.71200000e+03  3.89300000e+02  1.10000000e+02  3.55700000e+01
  1.25400000e+01  4.64400000e+00  5.11800000e-01  1.29300000e+00  1.78700000e-01
  2.66300000e+01  5.94800000e+00  1.74200000e+00  5.55000000e-01  1.72500000e-01
  1.65400000e+00  4.69000000e-01  1.09300000e+00  5.76000000e-02  4.91000000e-02
  1.51000000e-01  3.64000000e-01  3.38700000e+01  5.09500000e+00  1.15900000e+00
  3.25800000e-01  1.02700000e-01  1.40700000e+00  3.88000000e-01  1.05700000e+00
  2.52600000e-02  1.02000000e-01  2.47000000e-01  3.38700000e+01  5.09500000e+00
  1.15900000e+00  3.25800000e-01  1.02700000e-01  1.40700000e+00  3.88000000e-01
  1.05700000e+00  2.52600000e-02  1.02000000e-01  2.47000000e-01  3.38700000e+01
  5.09500000e+00  1.15900000e+00  3.25800000e-01  1.02700000e-01  1.40700000e+00
  3.88000000e-01  1.05700000e+00  2.52600000e-02  1.02000000e-01  2.47000000e-01
  3.38700000e+01  5.09500000e+00  1.15900000e+00  3.25800000e-01  1.02700000e-01
  1.40700000e+00  3.88000000e-01  1.05700000e+00  2.52600000e-02  1.02000000e-01
  2.47000000e-01
Contraction coefficients                   R   N=         186
  5.34980914e-04  4.13766310e-03  2.12509149e-02  8.25762988e-02  2.38413273e-01
  4.43431666e-01  3.55431909e-01 -8.70290176e-03 -1.98776985e-04 -1.54700349e-03
 -7.99256330e-03 -3.20255651e-02 -9.91102048e-02 -2.28292775e-01 -2.98182763e-01
  1.03700052e+00  1.00000000e+00  1.00000000e+00  3.98072123e-02  2.49002660e-01
  8.10479727e-01  1.00000000e+00  1.00000000e+00  1.00000000e+00  1.00000000e+00
  1.00000000e+00  1.00000000e+00  1.00000000e+00  1.00000000e+00  1.00000000e+00
  5.42430189e-04  4.19642790e-03  2.15409141e-02  8.36149496e-02  2.39871619e-01
  4.43751820e-01  3.53579696e-01 -9.17636608e-03 -1.96392234e-04 -1.52595027e-03
 -7.89044903e-03 -3.15148705e-02 -9.69100083e-02 -2.20541526e-01 -2.96069113e-01
  1.04050343e+00  1.00000000e+00  1.00000000e+00  3.94263872e-02  2.44088985e-01
  8.15492009e-01  1.00000000e+00  1.00000000e+00  1.00000000e+00  1.00000000e+00
  1.00000000e+00  1.00000000e+00  1.00000000e+00  1.00000000e+00  1.00000000e+00
  5.34980914e-04  4.13766310e-03  2.12509149e-02  8.25762988e-02  2.38413273e-01
  4.43431666e-01  3.55431909e-01 -8.70290176e-03 -1.98776985e-04 -1.54700349e-03
 -7.99256330e-03 -3.20255651e-02 -9.91102048e-02 -2.28292775e-01 -2.98182763e-01
  1.03700052e+00  1.00000000e+00  1.00000000e+00  3.98072123e-02  2.49002660e-01
  8.10479727e-01  1.00000000e+00  1.00000000e+00  1.00000000e+00  1.00000000e+00
  1.00000000e+00  1.00000000e+00  1.00000000e+00  1.00000000e+00  1.00000000e+00
  2.54948632e-02  1.90362766e-01  8.52162022e-01  1.00000000e+00  1.00000000e+00
  1.00000000e+00  1.00000000e+00  1.00000000e+00  1.00000000e+00  1.00000000e+00
  1.00000000e+00  2.54948632e-02  1.90362766e-01  8.52162022e-01  1.00000000e+00
  1.00000000e+00  1.00000000e+00  1.00000000e+00  1.00000000e+00  1.00000000e+00
  1.00000000e+00  1.00000000e+00  5.34980914e-04  4.13766310e-03  2.12509149e-02
  8.25762988e-02  2.38413273e-01  4.43431666e-01  3.55431909e-01 -8.70290176e-03
 -1.98776985e-04 -1.54700349e-03 -7.99256330e-03 -3.20255651e-02 -9.91102048e-02
 -2.28292775e-01 -2.98182763e-01  1.03700052e+00  1.00000000e+00  1.00000000e+00
  3.98072123e-02  2.49002660e-01  8.10479727e-01  1.00000000e+00  1.00000000e+00
  1.00000000e+00  1.00000000e+00  1.00000000e+00  1.00000000e+00  1.00000000e+00
  1.00000000e+00  1.00000000e+00  2.54948632e-02  1.90362766e-01  8.52162022e-01
  1.00000000e+00  1.00000000e+00  1.00000000e+00  1.00000000e+00  1.00000000e+00
  1.00000000e+00  1.00000000e+00  1.00000000e+00  2.54948632e-02  1.90362766e-01
  8.52162022e-01  1.00000000e+00  1.00000000e+00  1.00000000e+00  1.00000000e+00
  1.00000000e+00  1.00000000e+00  1.00000000e+00  1.00000000e+00  2.54948632e-02
  1.90362766e-01  8.52162022e-01  1.00000000e+00  1.00000000e+00  1.00000000e+00
  1.00000000e+00  1.00000000e+00  1.00000000e+00  1.00000000e+00  1.00000000e+00
  2.54948632e-02  1.90362766e-01  8.52162022e-01  1.00000000e+00  1.00000000e+00
  1.00000000e+00  1.00000000e+00  1.00000000e+00  1.00000000e+00  1.00000000e+00
  1.00000000e+00
Coordinates of each shell                  R   N=         330
 -1.09264085e+00  2.24931761e+00 -3.24488870e-01 -1.09264085e+00  2.24931761e+00
 -3.24488870e-01 -1.09264085e+00  2.24931761e+00 -3.24488870e-01 -1.09264085e+00
  2.24931761e+00 -3.24488870e-01 -1.09264085e+00  2.24931761e+00 -3.24488870e-01
 -1.09264085e+00  2.24931761e+00 -3.24488870e-01 -1.09264085e+00  2.24931761e+00
 -3.24488870e-01 -1.09264085e+00  2.24931761e+00 -3.24488870e-01 -1.09264085e+00
  2.24931761e+00 -3.24488870e-01 -1.09264085e+00  2.24931761e+00 -3.24488870e-01
 -1.09264085e+00  2.24931761e+00 -3.24488870e-01 -1.09264085e+00  2.24931761e+00
 -3.24488870e-01 -1.09264085e+00  2.24931761e+00 -3.24488870e-01 -1.09264085e+00
  2.24931761e+00 -3.24488870e-01  2.91738366e-06  2.22237265e-06  3.56934495e-06
  2.91738366e-06  2.22237265e-06  3.56934495e-06  2.91738366e-06  2.22237265e-06
  3.56934495e-06  2.91738366e-06  2.22237265e-06  3.56934495e-06  2.91738366e-06
  2.22237265e-06  3.56934495e-06  2.91738366e-06  2.22237265e-06  3.56934495e-06
  2.91738366e-06  2.22237265e-06  3.56934495e-06  2.91738366e-06  2.22237265e-06
  3.56934495e-06  2.91738366e-06  2.22237265e-06  3.56934495e-06  2.91738366e-06
  2.22237265e-06  3.56934495e-06  2.91738366e-06  2.22237265e-06  3.56934495e-06
  2.91738366e-06  2.22237265e-06  3.56934495e-06  2.91738366e-06  2.22237265e-06
  3.56934495e-06  2.91738366e-06  2.22237265e-06  3.56934495e-06  2.45265296e+00
 -1.39981951e-01  5.68674771e-01  2.45265296e+00 -1.39981951e-01  5.68674771e-01
  2.45265296e+00 -1.39981951e-01  5.68674771e-01  2.45265296e+00 -1.39981951e-01
  5.68674771e-01  2.45265296e+00 -1.39981951e-01  5.68674771e-01  2.45265296e+00
 -1.39981951e-01  5.68674771e-01  2.45265296e+00 -1.39981951e-01  5.68674771e-01
  2.45265296e+00 -1.39981951e-01  5.68674771e-01  2.45265296e+00 -1.39981951e-01
  5.68674771e-01  2.45265296e+00 -1.39981951e-01  5.68674771e-01  2.45265296e+00
 -1.39981951e-01  5.68674771e-01  2.45265296e+00 -1.39981951e-01  5.68674771e-01
  2.45265296e+00 -1.39981951e-01  5.68674771e-01  2.45265296e+00 -1.39981951e-01
  5.68674771e-01  3.52926575e+00  1.42719168e+00  7.65390483e-01  3.52926575e+00
  1.42719168e+00  7.65390483e-01  3.52926575e+00  1.42719168e+00  7.65390483e-01
  3.52926575e+00  1.42719168e+00  7.65390483e-01  3.52926575e+00  1.42719168e+00
  7.65390483e-01  3.52926575e+00  1.42719168e+00  7.65390483e-01  3.52926575e+00
  1.42719168e+00  7.65390483e-01  3.52926575e+00  1.42719168e+00  7.65390483e-01
  3.52926575e+00  1.42719168e+00  7.65390483e-01  3.33011288e+00 -1.81869516e+00
  8.25176084e-01  3.33011288e+00 -1.81869516e+00  8.25176084e-01  3.33011288e+00
 -1.81869516e+00  8.25176084e-01  3.33011288e+00 -1.81869516e+00  8.25176084e-01
  3.33011288e+00 -1.81869516e+00  8.25176084e-01  3.33011288e+00 -1.81869516e+00
  8.25176084e-01  3.33011288e+00 -1.81869516e+00  8.25176084e-01  3.33011288e+00
 -1.81869516e+00  8.25176084e-01  3.33011288e+00 -1.81869516e+00  8.25176084e-01
 -1.36002011e+00 -2.10933826e+00 -2.44182311e-01 -1.36002011e+00 -2.10933826e+00
 -2.44182311e-01 -1.36002011e+00 -2.10933826e+00 -2.44182311e-01 -1.36002011e+00
 -2.10933826e+00 -2.44182311e-01 -1.36002011e+00 -2.10933826e+00 -2.44182311e-01
 -1.36002011e+00 -2.10933826e+00 -2.44182311e-01 -1.36002011e+00 -2.10933826e+00
 -2.44182311e-01 -1.36002011e+00 -2.10933826e+00 -2.44182311e-01 -1.36002011e+00
 -2.10933826e+00 -2.44182311e-01 -1.36002011e+00 -2.10933826e+00 -2.44182311e-01
 -1.36002011e+00 -2.10933826e+00 -2.44182311e-01 -1.36002011e+00 -2.10933826e+00
 -2.44182311e-01 -1.36002011e+00 -2.10933826e+00 -2.44182311e-01 -1.36002011e+00
 -2.10933826e+00 -2.44182311e-01 -2.94755953e+00  2.41206540e+00 -7.56472685e-01
 -2.94755953e+00  2.41206540e+00 -7.56472685e-01 -2.94755953e+00  2.41206540e+00
 -7.56472685e-01 -2.94755953e+00  2.41206540e+00 -7.56472685e-01 -2.94755953e+00
  2.41206540e+00 -7.56472685e-01 -2.94755953e+00  2.41206540e+00 -7.56472685e-01
 -2.94755953e+00  2.41206540e+00 -7.56472685e-01 -2.94755953e+00  2.41206540e+00
 -7.56472685e-01 -2.94755953e+00  2.41206540e+00 -7.56472685e-01 -1.08204448e-01
  3.87862408e+00 -1.51117488e-01 -1.08204448e-01  3.87862408e+00 -1.51117488e-01
 -1.08204448e-01  3.87862408e+00 -1.51117488e-01 -1.08204448e-01  3.87862408e+00
 -1.51117488e-01 -1.08204448e-01  3.87862408e+00 -1.51117488e-01 -1.08204448e-01
  3.87862408e+00 -1.51117488e-01 -1.08204448e-01  3.87862408e+00 -1.51117488e-01
 -1.08204448e-01  3.87862408e+00 -1.51117488e-01 -1.08204448e-01  3.87862408e+00
 -1.51117488e-01 -3.22188275e+00 -2.05991562e+00 -6.74107959e-01 -3.22188275e+00
 -2.05991562e+00 -6.74107959e-01 -3.22188275e+00 -2.05991562e+00 -6.74107959e-01
 -3.22188275e+00 -2.05991562e+00 -6.74107959e-01 -3.22188275e+00 -2.05991562e+00
 -6.74107959e-01 -3.22188275e+00 -2.05991562e+00 -6.74107959e-01 -3.22188275e+00
 -2.05991562e+00 -6.74107959e-01 -3.22188275e+00 -2.05991562e+00 -6.74107959e-01
 -3.22188275e+00 -2.05991562e+00 -6.74107959e-01 -5.81655379e-01 -3.83926082e+00
 -8.96081221e-03 -5.81655379e-01 -3.83926082e+00 -8.96081221e-03 -5.81655379e-01
 -3.83926082e+00 -8.96081221e-03 -5.81655379e-01 -3.83926082e+00 -8.96081221e-03
 -5.81655379e-01 -3.83926082e+00 -8.96081221e-03 -5.81655379e-01 -3.83926082e+00
 -8.96081221e-03 -5.81655379e-01 -3.83926082e+00 -8.96081221e-03 -5.81655379e-01
 -3.83926082e+00 -8.96081221e-03 -5.81655379e-01 -3.83926082e+00 -8.96081221e-03
Total Energy                               R     -2.054011954229566e+02
Alpha Orbital Energies                     R   N=         322
 -1.57993815e+01 -1.57993805e+01 -1.57993421e+01 -1.16115871e+01 -1.54771787e+00
 -1.40034213e+00 -1.40033950e+00 -1.07996077e+00 -9.82780189e-01 -9.82778274e-01
 -8.67925134e-01 -8.67920324e-01 -8.67378116e-01 -8.16158220e-01 -6.31677723e-01
 -6.31676675e-01 -1.03835066e-01 -7.97560504e-02 -7.97557743e-02 -5.59312634e-02
 -5.29751957e-02 -5.29751117e-02 -2.13857191e-02 -1.70299331e-02 -1.17842659e-02
 -4.62817528e-03  1.03047114e-03  1.03094589e-03  3.42270429e-03  3.42297464e-03
  2.10932516e-02  3.63328130e-02  3.63330560e-02  3.91181245e-02  3.91182038e-02
  7.75448630e-02  8.34440740e-02  9.27757806e-02  9.27760396e-02  1.03819629e-01
  1.03820702e-01  1.33652145e-01  1.64415020e-01  1.64415147e-01  1.74927445e-01
  1.74928380e-01  1.76312024e-01  1.84944279e-01  2.14299275e-01  2.15344739e-01
  2.15346278e-01  2.23241200e-01  2.23242583e-01  2.25757976e-01  2.44141023e-01
  2.44143197e-01  2.44428421e-01  2.68834099e-01  2.68834979e-01  2.81310247e-01
  2.86580162e-01  2.86580411e-01  2.95411649e-01  2.95413147e-01  3.32606775e-01
  3.40943366e-01  3.53650640e-01  3.70681170e-01  3.87155505e-01  3.87156988e-01
  4.09900743e-01  4.09901351e-01  4.64664334e-01  4.64664526e-01  4.80401097e-01
  4.81847221e-01  4.81847351e-01  4.82016903e-01  5.25004842e-01  5.29024272e-01
  5.43056569e-01  5.43058129e-01  5.52154419e-01  5.52155825e-01  5.72624971e-01
  5.75300168e-01  5.75300648e-01  6.65104598e-01  6.73326091e-01  6.73326726e-01
  6.99043584e-01  7.23630838e-01  7.23632740e-01  7.38642103e-01  7.38642229e-01
  7.42424014e-01  7.94170339e-01  7.94171715e-01  8.15082717e-01  8.25946410e-01
  8.27224286e-01  8.27225661e-01  8.30000939e-01  8.30002151e-01  8.40558126e-01
  8.40560599e-01  8.88916915e-01  8.90009107e-01  8.90009816e-01  9.02266166e-01
  9.02266901e-01  9.17145812e-01  9.20859552e-01  9.55700100e-01  9.68117774e-01
  9.68119714e-01  9.75407533e-01  1.04284150e+00  1.06628997e+00  1.06629438e+00
  1.07225544e+00  1.07514545e+00  1.07514667e+00  1.08597815e+00  1.11456195e+00
  1.12208382e+00  1.12208548e+00  1.14385561e+00  1.14385647e+00  1.14416657e+00
  1.14416710e+00  1.18249603e+00  1.18249736e+00  1.19887031e+00  1.19887293e+00
  1.20183900e+00  1.22816985e+00  1.22817036e+00  1.23010122e+00  1.26209785e+00
  1.29729099e+00  1.33463062e+00  1.33463886e+00  1.33976480e+00  1.37351782e+00
  1.37352011e+00  1.37746476e+00  1.37766564e+00  1.39929563e+00  1.39929798e+00
  1.48093024e+00  1.48093523e+00  1.55806384e+00  1.58276026e+00  1.61975714e+00
  1.61976047e+00  1.63050875e+00  1.64728683e+00  1.64728832e+00  1.82664834e+00
  1.82665317e+00  1.84776977e+00  1.84873517e+00  1.84873735e+00  1.85308355e+00
  1.85308437e+00  1.87479974e+00  1.87983789e+00  1.89008886e+00  1.93656340e+00
  1.97209060e+00  1.99032532e+00  1.99032716e+00  2.02413746e+00  2.02413975e+00
  2.11056193e+00  2.15797622e+00  2.15797819e+00  2.22031962e+00  2.22032223e+00
  2.22236910e+00  2.26469446e+00  2.26469589e+00  2.26528903e+00  2.30838472e+00
  2.30839174e+00  2.36706236e+00  2.37148376e+00  2.37148513e+00  2.40061274e+00
  2.40061443e+00  2.43535659e+00  2.43536306e+00  2.46397528e+00  2.53022020e+00
  2.53022311e+00  2.63383030e+00  2.67363366e+00  2.71546169e+00  2.71546440e+00
  2.84947160e+00  2.89076854e+00  2.94186711e+00  2.94187898e+00  2.97047173e+00
  3.25418348e+00  3.25418648e+00  3.43884214e+00  3.43884397e+00  3.51060286e+00
  3.54492422e+00  3.58675105e+00  3.58675983e+00  3.59032412e+00  3.59033101e+00
  3.59396229e+00  3.78186728e+00  3.79367672e+00  3.79368902e+00  3.83903565e+00
  3.83904402e+00  3.86975684e+00  3.86976289e+00  3.89021176e+00  3.93048196e+00
  3.93704951e+00  3.94946784e+00  3.94947734e+00  4.05444738e+00  4.09050437e+00
  4.09050750e+00  4.09742544e+00  4.09743106e+00  4.10659488e+00  4.10660572e+00
  4.14892025e+00  4.21335410e+00  4.21336544e+00  4.26281396e+00  4.28138198e+00
  4.30720064e+00  4.30720076e+00  4.30860878e+00  4.33824167e+00  4.36777271e+00
  4.36778186e+00  4.40119636e+00  4.40119879e+00  4.49540156e+00  4.49540707e+00
  4.53637408e+00  4.57335598e+00  4.57335657e+00  4.68013218e+00  4.68013996e+00
  4.68856106e+00  4.71069825e+00  4.71188274e+00  4.75912604e+00  4.77082918e+00
  4.80573774e+00  4.80574070e+00  4.86993211e+00  4.86994027e+00  4.92635461e+00
  4.94600099e+00  4.94600317e+00  5.02301589e+00  5.03890896e+00  5.08000173e+00
  5.08000528e+00  5.20731520e+00  5.20732215e+00  5.21624848e+00  5.25479007e+00
  5.29802564e+00  5.29803477e+00  5.35904936e+00  5.37691407e+00  5.37692237e+00
  5.39826403e+00  5.39826512e+00  5.40117139e+00  5.42201671e+00  5.54136843e+00
  5.54137359e+00  5.54813530e+00  5.54814463e+00  5.74212525e+00  5.75302163e+00
  5.75303034e+00  5.81693165e+00  5.81693703e+00  5.83159069e+00  5.87882122e+00
  5.89510295e+00  5.89510658e+00  5.95718191e+00  6.11309296e+00  6.11310862e+00
  6.14893269e+00  6.14893858e+00  6.17195812e+00  6.36966214e+00  6.43199822e+00
  6.43201162e+00  6.62752123e+00  6.62754332e+00  6.67716624e+00  6.85085162e+00
  6.85085334e+00  7.23834320e+00  7.32628227e+00  7.32630725e+00  7.50887702e+00
  7.59861628e+00  7.59862839e+00  7.91474354e+00  1.67338052e+01  1.77707674e+01
  1.77708298e+01  1.86651534e+01
Alpha MO coefficients                      R   N=      103684
  4.90856295e-01  4.16200963e-04  2.16548184e-02  3.14241661e-03  1.39411721e-04
 -2.42361958e-04  3.99133073e-05 -8.83836198e-04  1.12859154e-03 -2.40007500e-04
  1.34254751e-03 -8.86150653e-04  3.37695405e-04 -1.93668454e-04  7.82512476e-05
 -2.34291601e-06 -7.52843689e-06  4.09082403e-05  3.02280133e-04 -2.62827989e-05
  1.52951672e-04  4.93730925e-04  5.19576280e-04  4.26296231e-05  3.92671235e-05
 -9.74718187e-05 -1.16220822e-04  4.57988798e-05 -3.37394996e-04  6.54531510e-05
  2.09147912e-03  8.88698893e-04 -6.91261805e-04  2.26923475e-04  5.48203729e-04
 -6.81866957e-05  1.65787406e-05  6.47133579e-04 -1.56116295e-04 -1.26104913e-04
 -1.27063501e-04  1.33910887e-04  3.94289426e-04 -2.75055150e-04  1.03023345e-03
 -8.64148028e-04 -9.46445621e-06 -2.00504841e-05 -1.23914851e-05  1.10916413e-04
 -2.32028302e-04  5.04559443e-05 -5.50062138e-05 -4.27334360e-03  9.29181064e-04
 -1.01311851e-03  2.84336293e-03 -6.18320644e-04  6.73944158e-04 -6.50337562e-06
 -3.63879785e-05 -6.66894108e-06 -1.62121938e-04 -5.62170445e-06 -4.04504567e-05
 -1.80490260e-04 -3.40952106e-05 -8.18307294e-04 -2.83038931e-05 -3.08842366e-05
 -4.55841583e-05  1.05812100e-05  2.03620419e-05 -6.96638395e-06  3.94540788e-06
  2.07635271e-07  6.92440999e-05 -1.03445066e-04  2.24791206e-05 -2.45700008e-05
  2.02951995e-04  1.08379168e-03  1.99726858e-04  4.84443374e-03  1.67783578e-04
 -1.78964373e-04 -2.65932398e-04  6.09555258e-05  1.05361924e-04 -3.98301413e-05
 -2.08358898e-05  9.03021346e-06 -7.97078084e-01 -6.74547888e-04 -3.51574257e-02
 -5.12554877e-03  4.42316362e-04 -2.91329841e-05  1.02587448e-04 -2.20057788e-03
  1.85807749e-04 -5.12216149e-04  2.20505814e-03 -2.89306585e-04  5.16640945e-04
  3.16884527e-04 -1.17517005e-04  1.75271009e-05  6.35788363e-05 -1.43270127e-05
 -4.10608179e-04  4.42998480e-04 -1.67390186e-05  1.09653355e-03 -1.12794848e-04
  1.10993058e-04  1.88652190e-04 -7.45218524e-06  9.18763640e-05  9.11468536e-06
  5.62981004e-04 -1.00743571e-04 -3.40362795e-03  1.59138132e-03 -1.89961473e-04
  3.72248080e-04 -7.93968758e-04  4.21445455e-04 -1.78904525e-05  3.70563779e-04
  7.81008596e-05 -2.38499237e-04 -4.26936065e-04  2.27579208e-05 -3.93035321e-04
 -5.41508293e-05 -1.89370750e-03  2.09615195e-04 -4.77770883e-04 -8.60980894e-04
 -1.11397586e-04 -1.63678587e-04 -2.55087760e-04 -2.93584187e-05 -7.93747572e-04
 -5.45119958e-04 -1.64808688e-04 -3.09633347e-04  9.02700730e-05  6.66856756e-05
 -1.08260080e-04  3.83630357e-04 -1.91269436e-04 -7.14581492e-04  2.77748917e-04
 -1.73403550e-04 -2.60942466e-04  1.20787650e-04  2.48017448e-05  6.95495724e-05
  1.65739653e-04 -4.70504993e-04 -9.52552739e-04  8.71470019e-04 -1.43411816e-04
  2.72760121e-04 -4.18686229e-05 -8.49616975e-04  5.70822165e-04 -2.13959554e-04
 -3.00179655e-04  9.29115845e-05 -1.06701096e-04 -1.91769319e-04 -3.59631263e-04
 -1.94280205e-04 -9.74194713e-04  6.77914405e-05 -2.26291772e-04 -2.58000419e-04
  1.32148408e-04 -6.94272851e-05  6.05873585e-05 -2.42605021e-04  2.80207946e-01
  2.37809076e-04  1.23628873e-02  1.79016087e-03  1.06232987e-04  1.21895783e-04
  2.04295773e-05 -7.39207812e-04 -4.82885488e-04 -1.54314818e-04  1.24818000e-03
  1.32658725e-04  2.82834673e-04 -1.10576426e-04  4.21790002e-05 -1.31477666e-05
 -2.19000440e-05 -2.55674059e-05  1.80165029e-04 -3.57407338e-06 -6.07675921e-05
  2.46729634e-04 -3.43085036e-04  2.54021357e-05  3.83014536e-05  4.40802511e-05
 -7.77140544e-05 -1.52356771e-05 -1.93655453e-04  2.42649513e-05  1.19269708e-03
  8.11546043e-04  1.65461407e-04  1.81305462e-04  3.30580625e-04  3.01341167e-05
  7.35540577e-05  7.18462333e-04  1.37949573e-04 -1.07690665e-04 -1.47753945e-04
  4.04115118e-06  2.73807977e-04  2.24261961e-04  7.98919798e-04  6.80097912e-04
  2.76250949e-04  8.13695992e-04 -2.73453211e-03 -1.98354661e-04  4.19650456e-05
 -4.69927877e-05 -5.18850402e-04  6.84897244e-04 -1.41602391e-04  1.63259166e-04
 -1.33911047e-04  2.59228210e-05 -2.53033322e-04  1.03988069e-04  1.28896304e-04
 -1.00939990e-03  8.13945423e-04 -2.58659668e-04  1.58911580e-04 -1.11366327e-04
  7.31220311e-05 -1.39262013e-04  2.94681564e-04  3.13392767e-04  3.44906207e-04
  2.29187227e-03  1.13078214e-04  1.32012757e-04  2.17099895e-05  3.64588609e-04
  4.14494311e-04  7.03766442e-05  2.01667402e-04 -5.27022798e-05 -2.90442545e-05
  1.04144387e-04 -1.92043471e-04  1.13448211e-04 -5.78287619e-04 -4.05828473e-04
 -1.19807130e-04  1.57330179e-04 -7.84098184e-05  2.86666410e-06 -5.32491485e-05
 -2.11295848e-05  1.46845393e-04  6.16422809e-04 -3.12759846e-03 -1.26304225e-04
 -2.74767030e-05 -2.81619249e-05 -3.65297075e-04 -5.85922908e-04 -6.49338368e-05
  8.75621014e-05 -7.80091781e-05 -1.00264728e-05 -1.75861921e-04 -4.26182014e-05
  7.90516371e-05 -1.16990323e-03 -5.19325190e-04 -2.52208321e-04  9.46606803e-05
 -7.67307317e-05 -5.67242443e-05 -1.88530604e-04 -2.45310599e-04  1.91258494e-04
  5.60763965e-05  2.88161539e-03  6.53251484e-05 -6.55788988e-05  1.71551823e-05
  3.74780816e-04 -1.50310429e-04  9.10883400e-05  1.18893496e-04 -3.93590010e-05
  2.89366373e-05  5.70985870e-05  8.72385784e-05  6.05914887e-05 -4.06926078e-04
  8.21023772e-04 -1.20298480e-04  8.18232562e-05 -7.12498513e-05  8.43715670e-06
 -1.46463004e-04  3.50017476e-05  6.26592230e-01  5.30404438e-04  2.76383391e-02
  4.02668469e-03  1.41190428e-04 -3.26465694e-04  4.30516100e-05 -5.58271699e-04
  1.70412257e-03 -1.83874804e-04  1.91197554e-04 -1.90116485e-03  1.05842749e-04
 -2.45857620e-04  1.09016941e-04 -8.23997089e-06  2.62202312e-05  2.43216483e-05
  3.74856451e-04 -6.29402055e-05  2.08073867e-04  5.01365078e-04  7.38898847e-04
  3.66230504e-05  2.05211842e-05 -1.42389942e-04 -1.35362685e-04  5.67285464e-05
 -4.35968306e-04  6.19423633e-05  2.67483718e-03  2.05886246e-04 -1.33786140e-03
  9.08842920e-05  6.25656219e-04 -3.21574563e-04  1.53456328e-04 -1.61122490e-04
  5.25546159e-04 -3.93758821e-05  3.80500447e-05  3.61763990e-04  4.20310285e-04
  1.46364234e-05  1.55718450e-03  2.92100103e-04  4.91774595e-06  1.04185609e-05
  6.42792875e-06 -5.76073089e-05  5.08660953e-05  2.38343450e-04  3.94389247e-06
  9.36750069e-04  4.39013006e-03  7.26317844e-05 -6.23383193e-04 -2.92055608e-03
 -4.82917598e-05  2.02322958e-06  6.37447243e-06 -3.70758795e-05  5.61240665e-06
 -1.62122416e-04  1.41755763e-05  3.05430510e-05 -1.86879795e-04  2.85657356e-05
 -8.17997400e-04  2.19029817e-06  1.09805619e-05  5.47763007e-05 -8.08097695e-06
 -1.95363841e-05 -1.96726750e-06  3.22406088e-06 -3.59507756e-05  2.26659942e-05