2022-11-03:12:38:37,679 INFO     [psi4.driver.task_planner:266] PLANNING Atomic:  keywords={'CUBEPROP_TASKS': ['ESP'], 'FREEZE_CORE': 'TRUE', 'MAXITER': 500, 'PROPERTIES_ORIGIN': ['COM'], 'function_kwargs': {}}
2022-11-03:12:38:37,682 INFO     [psi4.driver.driver:774] Compute properties(): method=mp2, basis=aug-cc-pvtz, molecule=default, nre=133.32009105881474
2022-11-03:12:39:13,710 INFO     [psi4.driver.driver:777] Return properties(): -205.40119542295665
 A. Shaw, J. B. Schriber, Y. Xie, Z. L. Glick, D. A. Sirianni,
    J. S. O'Brien, J. M. Waldrop, A. Kumar, E. G. Hohenstein,
    B. P. Pritchard, B. R. Brooks, H. F. Schaefer III, A. Yu. Sokolov,
    K. Patkowski, A. E. DePrince III, U. Bozkaya, R. A. King,
    F. A. Evangelista, J. M. Turney, T. D. Crawford, C. D. Sherrill,
    J. Chem. Phys. 152(18) 184108 (2020). https://doi.org/10.1063/5.0006002

                            Additional Code Authors
    E. T. Seidl, C. L. Janssen, E. F. Valeev, M. L. Leininger,
    J. F. Gonthier, R. M. Richard, H. R. McAlexander, M. Saitow, X. Wang,
    P. Verma, M. H. Lechner, and A. Jiang

             Previous Authors, Complete List of Code Contributors,
                       and Citations for Specific Modules
    https://github.com/psi4/psi4/blob/master/codemeta.json
    https://github.com/psi4/psi4/graphs/contributors
    http://psicode.org/psi4manual/master/introduction.html#citing-psifour

    -----------------------------------------------------------------------


    Psi4 started on: Thursday, 03 November 2022 12:38PM

    Process ID: 6476
    Host:       DESKTOP-26BCFJT
    PSIDATADIR: /home/chase/psi4conda/share/psi4
    Memory:     500.0 MiB
    Threads:    1
    
  ==> Input File <==

--------------------------------------------------------------------------
molecule { 
1 1
N -0.578200638593 1.19028762133 -0.171712115026
C 1.543813e-06 1.176029e-06 1.888816e-06
N 1.297888051046 -0.074075258553 0.300929728943
H 1.867607005741 0.755237311761 0.405027201032
H 1.762219844216 -0.962412032848 0.436664378381
N -0.719691649863 -1.116213734446 -0.129215714284
H -1.559781329947 1.276410038613 -0.400308105547
H -0.057259327984 2.05247947031 -0.079967930595
H -1.704946927014 -1.090060401751 -0.356722569638
H -0.307798770867 -2.031649330409 -0.004741857608
}
memory 5GB
set_num_threads(6)
psi4_io.set_default_path("/home/chase/temp/Psi4-guan")
set maxiter 500
set freeze_core True
set PROPERTIES_ORIGIN ["COM"]
set cubeprop_tasks ['esp']
set basis aug-cc-pVTZ 
E, wfn = properties('mp2',properties=['dipole','GRID_ESP','WIBERG_LOWDIN_INDICES','MULLIKEN_CHARGES'],return_wfn=True)
cubeprop(wfn)
fchk(wfn, "guan-esp.fchk")
clean()
--------------------------------------------------------------------------

  Memory set to   4.657 GiB by Python driver.
  Threads set to 6 by Python driver.
    SCF Algorithm Type (re)set to DF.

*** tstart() called on DESKTOP-26BCFJT
*** at Thu Nov  3 12:38:37 2022

   => Loading Basis Set <=

    Name: AUG-CC-PVTZ
    Role: ORBITAL
    Keyword: BASIS
    atoms 1, 3, 6   entry N          line   285 file /home/chase/psi4conda/share/psi4/basis/aug-cc-pvtz.gbs 
    atoms 2         entry C          line   239 file /home/chase/psi4conda/share/psi4/basis/aug-cc-pvtz.gbs 
    atoms 4-5, 7-10 entry H          line    40 file /home/chase/psi4conda/share/psi4/basis/aug-cc-pvtz.gbs 


         ---------------------------------------------------------
                                   SCF
               by Justin Turney, Rob Parrish, Andy Simmonett
                          and Daniel G. A. Smith
                              RHF Reference
                        6 Threads,   4768 MiB Core
         ---------------------------------------------------------

  ==> Geometry <==

    Molecular point group: c1
    Full point group: C1

    Geometry (in Angstrom), charge = 1, multiplicity = 1:

       Center              X                  Y                   Z               Mass       
    ------------   -----------------  -----------------  -----------------  -----------------
         N           -0.578200638593     1.190287621330    -0.171712115026    14.003074004430
         C            0.000001543813     0.000001176029     0.000001888816    12.000000000000
         N            1.297888051046    -0.074075258553     0.300929728943    14.003074004430
         H            1.867607005741     0.755237311761     0.405027201032     1.007825032230
         H            1.762219844216    -0.962412032848     0.436664378381     1.007825032230
         N           -0.719691649863    -1.116213734446    -0.129215714284    14.003074004430
         H           -1.559781329947     1.276410038613    -0.400308105547     1.007825032230
         H           -0.057259327984     2.052479470310    -0.079967930595     1.007825032230
         H           -1.704946927014    -1.090060401751    -0.356722569638     1.007825032230
         H           -0.307798770867    -2.031649330409    -0.004741857608     1.007825032230

  Running in c1 symmetry.

  Rotational constants: A =      0.33604  B =      0.33603  C =      0.16802 [cm^-1]
  Rotational constants: A =  10074.09102  B =  10073.97021  C =   5037.01531 [MHz]
  Nuclear repulsion =  133.320091058814739

  Charge       = 1
  Multiplicity = 1
  Electrons    = 32
  Nalpha       = 16
  Nbeta        = 16

  ==> Algorithm <==

  SCF Algorithm Type is DF.
  DIIS enabled.
  MOM disabled.
  Fractional occupation disabled.
  Guess Type is SAD.
  Energy threshold   = 1.00e-10
  Density threshold  = 1.00e-10
  Integral threshold = 1.00e-12

  ==> Primary Basis <==

  Basis Set: AUG-CC-PVTZ
    Blend: AUG-CC-PVTZ
    Number of shells: 110
    Number of basis functions: 322
    Number of Cartesian functions: 370
    Spherical Harmonics?: true
    Max angular momentum: 3

   => Loading Basis Set <=

    Name: (AUG-CC-PVTZ AUX)
    Role: JKFIT
    Keyword: DF_BASIS_SCF
    atoms 1, 3, 6   entry N          line   224 file /home/chase/psi4conda/share/psi4/basis/aug-cc-pvtz-jkfit.gbs 
    atoms 2         entry C          line   162 file /home/chase/psi4conda/share/psi4/basis/aug-cc-pvtz-jkfit.gbs 
    atoms 4-5, 7-10 entry H          line    70 file /home/chase/psi4conda/share/psi4/basis/aug-cc-pvtz-jkfit.gbs 

  ==> Integral Setup <==

  DFHelper Memory: AOs need 0.561 GiB; user supplied 3.492 GiB. Using in-core AOs.

  ==> MemDFJK: Density-Fitted J/K Matrices <==

    J tasked:                   Yes
    K tasked:                   Yes
    wK tasked:                   No
    OpenMP threads:               6
    Memory [MiB]:              3576
    Algorithm:                 Core
    Schwarz Cutoff:           1E-12
    Mask sparsity (%):       0.4880
    Fitting Condition:        1E-10

   => Auxiliary Basis Set <=

  Basis Set: (AUG-CC-PVTZ AUX)
    Blend: AUG-CC-PVTZ-JKFIT
    Number of shells: 204
    Number of basis functions: 692
    Number of Cartesian functions: 854
    Spherical Harmonics?: true
    Max angular momentum: 4

  Minimum eigenvalue in the overlap matrix is 3.1258947116E-05.
  Reciprocal condition number of the overlap matrix is 2.1733770523E-06.
    Using symmetric orthogonalization.

  ==> Pre-Iterations <==

  SCF Guess: Superposition of Atomic Densities via on-the-fly atomic UHF (no occupation information).

   -------------------------
    Irrep   Nso     Nmo    
   -------------------------
     A        322     322 
   -------------------------
    Total     322     322
   -------------------------

  ==> Iterations <==

                           Total Energy        Delta E     RMS |[F,P]|

   @DF-RHF iter SAD:  -204.35712775800567   -2.04357e+02   0.00000e+00 
   @DF-RHF iter   1:  -204.47133561900495   -1.14208e-01   1.72041e-03 ADIIS/DIIS
   @DF-RHF iter   2:  -204.59166705196611   -1.20331e-01   7.40496e-04 ADIIS/DIIS
   @DF-RHF iter   3:  -204.61301674289831   -2.13497e-02   1.31603e-04 ADIIS/DIIS
   @DF-RHF iter   4:  -204.61441685210698   -1.40011e-03   2.05714e-05 DIIS
   @DF-RHF iter   5:  -204.61445380026490   -3.69482e-05   9.23365e-06 DIIS
   @DF-RHF iter   6:  -204.61446010290589   -6.30264e-06   2.07580e-06 DIIS
   @DF-RHF iter   7:  -204.61446073420359   -6.31298e-07   4.00095e-07 DIIS
   @DF-RHF iter   8:  -204.61446075235244   -1.81489e-08   5.01488e-08 DIIS
   @DF-RHF iter   9:  -204.61446075261208   -2.59632e-10   6.83114e-09 DIIS
   @DF-RHF iter  10:  -204.61446075261796   -5.88329e-12   1.12745e-09 DIIS
   @DF-RHF iter  11:  -204.61446075261753    4.26326e-13   1.91631e-10 DIIS
   @DF-RHF iter  12:  -204.61446075261790   -3.69482e-13   9.11020e-11 DIIS
  Energy and wave function converged.


  ==> Post-Iterations <==

    Orbital Energies [Eh]
    ---------------------

    Doubly Occupied:                                                      

       1A    -15.799381     2A    -15.799381     3A    -15.799342  
       4A    -11.611587     5A     -1.547718     6A     -1.400342  
       7A     -1.400340     8A     -1.079961     9A     -0.982780  
      10A     -0.982778    11A     -0.867925    12A     -0.867920  
      13A     -0.867378    14A     -0.816158    15A     -0.631678  
      16A     -0.631677  

    Virtual:                                                              

      17A     -0.103835    18A     -0.079756    19A     -0.079756  
      20A     -0.055931    21A     -0.052975    22A     -0.052975  
      23A     -0.021386    24A     -0.017030    25A     -0.011784  
      26A     -0.004628    27A      0.001030    28A      0.001031  
      29A      0.003423    30A      0.003423    31A      0.021093  
      32A      0.036333    33A      0.036333    34A      0.039118  
      35A      0.039118    36A      0.077545    37A      0.083444  
      38A      0.092776    39A      0.092776    40A      0.103820  
      41A      0.103821    42A      0.133652    43A      0.164415  
      44A      0.164415    45A      0.174927    46A      0.174928  
      47A      0.176312    48A      0.184944    49A      0.214299  
      50A      0.215345    51A      0.215346    52A      0.223241  
      53A      0.223243    54A      0.225758    55A      0.244141  
      56A      0.244143    57A      0.244428    58A      0.268834  
      59A      0.268835    60A      0.281310    61A      0.286580  
      62A      0.286580    63A      0.295412    64A      0.295413  
      65A      0.332607    66A      0.340943    67A      0.353651  
      68A      0.370681    69A      0.387156    70A      0.387157  
      71A      0.409901    72A      0.409901    73A      0.464664  
      74A      0.464665    75A      0.480401    76A      0.481847  
      77A      0.481847    78A      0.482017    79A      0.525005  
      80A      0.529024    81A      0.543057    82A      0.543058  
      83A      0.552154    84A      0.552156    85A      0.572625  
      86A      0.575300    87A      0.575301    88A      0.665105  
      89A      0.673326    90A      0.673327    91A      0.699044  
      92A      0.723631    93A      0.723633    94A      0.738642  
      95A      0.738642    96A      0.742424    97A      0.794170  
      98A      0.794172    99A      0.815083   100A      0.825946  
     101A      0.827224   102A      0.827226   103A      0.830001  
     104A      0.830002   105A      0.840558   106A      0.840561  
     107A      0.888917   108A      0.890009   109A      0.890010  
     110A      0.902266   111A      0.902267   112A      0.917146  
     113A      0.920860   114A      0.955700   115A      0.968118  
     116A      0.968120   117A      0.975408   118A      1.042842  
     119A      1.066290   120A      1.066294   121A      1.072255  
     122A      1.075145   123A      1.075147   124A      1.085978  
     125A      1.114562   126A      1.122084   127A      1.122085  
     128A      1.143856   129A      1.143856   130A      1.144167  
     131A      1.144167   132A      1.182496   133A      1.182497  
     134A      1.198870   135A      1.198873   136A      1.201839  
     137A      1.228170   138A      1.228170   139A      1.230101  
     140A      1.262098   141A      1.297291   142A      1.334631  
     143A      1.334639   144A      1.339765   145A      1.373518  
     146A      1.373520   147A      1.377465   148A      1.377666  
     149A      1.399296   150A      1.399298   151A      1.480930  
     152A      1.480935   153A      1.558064   154A      1.582760  
     155A      1.619757   156A      1.619760   157A      1.630509  
     158A      1.647287   159A      1.647288   160A      1.826648  
     161A      1.826653   162A      1.847770   163A      1.848735  
     164A      1.848737   165A      1.853084   166A      1.853084  
     167A      1.874800   168A      1.879838   169A      1.890089  
     170A      1.936563   171A      1.972091   172A      1.990325  
     173A      1.990327   174A      2.024137   175A      2.024140  
     176A      2.110562   177A      2.157976   178A      2.157978  
     179A      2.220320   180A      2.220322   181A      2.222369  
     182A      2.264694   183A      2.264696   184A      2.265289  
     185A      2.308385   186A      2.308392   187A      2.367062  
     188A      2.371484   189A      2.371485   190A      2.400613  
     191A      2.400614   192A      2.435357   193A      2.435363  
     194A      2.463975   195A      2.530220   196A      2.530223  
     197A      2.633830   198A      2.673634   199A      2.715462  
     200A      2.715464   201A      2.849472   202A      2.890769  
     203A      2.941867   204A      2.941879   205A      2.970472  
     206A      3.254183   207A      3.254186   208A      3.438842  
     209A      3.438844   210A      3.510603   211A      3.544924  
     212A      3.586751   213A      3.586760   214A      3.590324  
     215A      3.590331   216A      3.593962   217A      3.781867  
     218A      3.793677   219A      3.793689   220A      3.839036  
     221A      3.839044   222A      3.869757   223A      3.869763  
     224A      3.890212   225A      3.930482   226A      3.937050  
     227A      3.949468   228A      3.949477   229A      4.054447  
     230A      4.090504   231A      4.090507   232A      4.097425  
     233A      4.097431   234A      4.106595   235A      4.106606  
     236A      4.148920   237A      4.213354   238A      4.213365  
     239A      4.262814   240A      4.281382   241A      4.307201  
     242A      4.307201   243A      4.308609   244A      4.338242  
     245A      4.367773   246A      4.367782   247A      4.401196  
     248A      4.401199   249A      4.495402   250A      4.495407  
     251A      4.536374   252A      4.573356   253A      4.573357  
     254A      4.680132   255A      4.680140   256A      4.688561  
     257A      4.710698   258A      4.711883   259A      4.759126  
     260A      4.770829   261A      4.805738   262A      4.805741  
     263A      4.869932   264A      4.869940   265A      4.926355  
     266A      4.946001   267A      4.946003   268A      5.023016  
     269A      5.038909   270A      5.080002   271A      5.080005  
     272A      5.207315   273A      5.207322   274A      5.216248  
     275A      5.254790   276A      5.298026   277A      5.298035  
     278A      5.359049   279A      5.376914   280A      5.376922  
     281A      5.398264   282A      5.398265   283A      5.401171  
     284A      5.422017   285A      5.541368   286A      5.541374  
     287A      5.548135   288A      5.548145   289A      5.742125  
     290A      5.753022   291A      5.753030   292A      5.816932  
     293A      5.816937   294A      5.831591   295A      5.878821  
     296A      5.895103   297A      5.895107   298A      5.957182  
     299A      6.113093   300A      6.113109   301A      6.148933  
     302A      6.148939   303A      6.171958   304A      6.369662  
     305A      6.431998   306A      6.432012   307A      6.627521  
     308A      6.627543   309A      6.677166   310A      6.850852  
     311A      6.850853   312A      7.238343   313A      7.326282  
     314A      7.326307   315A      7.508877   316A      7.598616  
     317A      7.598628   318A      7.914744   319A     16.733805  
     320A     17.770767   321A     17.770830   322A     18.665153  

    Final Occupation by Irrep:
              A 
    DOCC [    16 ]

  @DF-RHF Final Energy:  -204.61446075261790

   => Energetics <=

    Nuclear Repulsion Energy =            133.3200910588147394
    One-Electron Energy =                -533.6964113370089535
    Two-Electron Energy =                 195.7618595255763125
    Total Energy =                       -204.6144607526179016

Computation Completed

*** tstop() called on DESKTOP-26BCFJT at Thu Nov  3 12:38:41 2022
Module time:
	user time   =      17.69 seconds =       0.29 minutes
	system time =       0.62 seconds =       0.01 minutes
	total time  =          4 seconds =       0.07 minutes
Total time:
	user time   =      17.69 seconds =       0.29 minutes
	system time =       0.62 seconds =       0.01 minutes
	total time  =          4 seconds =       0.07 minutes
   => Loading Basis Set <=

    Name: (AUG-CC-PVTZ AUX)
    Role: RIFIT
    Keyword: DF_BASIS_MP2
    atoms 1, 3, 6   entry N          line   206 file /home/chase/psi4conda/share/psi4/basis/aug-cc-pvtz-ri.gbs 
    atoms 2         entry C          line   148 file /home/chase/psi4conda/share/psi4/basis/aug-cc-pvtz-ri.gbs 
    atoms 4-5, 7-10 entry H          line    30 file /home/chase/psi4conda/share/psi4/basis/aug-cc-pvtz-ri.gbs 


*** tstart() called on DESKTOP-26BCFJT
*** at Thu Nov  3 12:38:41 2022


  //>>>>>>>>>>>>>>>>>>>>>>>>>>>>>>>>>>>//
  //               DFMP2               //
  //<<<<<<<<<<<<<<<<<<<<<<<<<<<<<<<<<<<//

	 --------------------------------------------------------
	                          DF-MP2                         
	      2nd-Order Density-Fitted Moller-Plesset Theory     
	              RMP2 Wavefunction,   6 Threads             
	                                                         
	        Rob Parrish, Justin Turney, Andy Simmonett,      
	           Ed Hohenstein, and C. David Sherrill          
	 --------------------------------------------------------

   => Auxiliary Basis Set <=

  Basis Set: (AUG-CC-PVTZ AUX)
    Blend: AUG-CC-PVTZ-RI
    Number of shells: 196
    Number of basis functions: 700
    Number of Cartesian functions: 874
    Spherical Harmonics?: true
    Max angular momentum: 4

	 --------------------------------------------------------
	                 NBF =   322, NAUX =   700
	 --------------------------------------------------------
	   CLASS    FOCC     OCC    AOCC    AVIR     VIR    FVIR
	   PAIRS       4      16      12     306     306       0
	 --------------------------------------------------------

  DFHelper Memory: AOs need 0.561 GiB; user supplied 3.492 GiB. Using in-core AOs.


         ------------------------------------------------------------
                                     CPHF                           
                                  Rob Parrish                       
         ------------------------------------------------------------

  ==> Geometry <==

    Molecular point group: c1
    Full point group: C1

    Geometry (in Angstrom), charge = 1, multiplicity = 1:

       Center              X                  Y                   Z               Mass       
    ------------   -----------------  -----------------  -----------------  -----------------
         N           -0.578200638593     1.190287621330    -0.171712115026    14.003074004430
         C            0.000001543813     0.000001176029     0.000001888816    12.000000000000
         N            1.297888051046    -0.074075258553     0.300929728943    14.003074004430
         H            1.867607005741     0.755237311761     0.405027201032     1.007825032230
         H            1.762219844216    -0.962412032848     0.436664378381     1.007825032230
         N           -0.719691649863    -1.116213734446    -0.129215714284    14.003074004430
         H           -1.559781329947     1.276410038613    -0.400308105547     1.007825032230
         H           -0.057259327984     2.052479470310    -0.079967930595     1.007825032230
         H           -1.704946927014    -1.090060401751    -0.356722569638     1.007825032230
         H           -0.307798770867    -2.031649330409    -0.004741857608     1.007825032230

  Nuclear repulsion =  133.320091058814768
  Reference energy  = -204.614460752617902

  ==> Basis Set <==

  Basis Set: AUG-CC-PVTZ
    Blend: AUG-CC-PVTZ
    Number of shells: 110
    Number of basis functions: 322
    Number of Cartesian functions: 370
    Spherical Harmonics?: true
    Max angular momentum: 3

  ==> CGRSolver (by Rob Parrish) <==

   Number of roots    =         1
   Preconditioning    =    JACOBI
   Convergence cutoff =     1E-06
   Maximum iterations =       100

  ==> CPHFRHamiltonian (by Rob Parrish) <== 

  ==> MemDFJK: Density-Fitted J/K Matrices <==

    J tasked:                   Yes
    K tasked:                   Yes
    wK tasked:                   No
    OpenMP threads:               6
    Memory [MiB]:              3576
    Algorithm:                 Core
    Schwarz Cutoff:           1E-12
    Mask sparsity (%):       0.4880
    Fitting Condition:        1E-10

   => Auxiliary Basis Set <=

  Basis Set: (AUG-CC-PVTZ AUX)
    Blend: AUG-CC-PVTZ-JKFIT
    Number of shells: 204
    Number of basis functions: 692
    Number of Cartesian functions: 854
    Spherical Harmonics?: true
    Max angular momentum: 4

  ==> CPHF Iterations <==

  => Iterations <=

             Iter  Converged  Remaining    Residual
  CGR           1          0          1   1.070E-01
  CGR           2          0          1   2.480E-02
  CGR           3          0          1   5.658E-03
  CGR           4          0          1   1.616E-03
  CGR           5          0          1   1.917E-04
  CGR           6          0          1   2.877E-05
  CGR           7          0          1   3.208E-06
  CGR           8          1          0   4.260E-07

    CGRSolver converged.

	-----------------------------------------------------------
	 ==================> DF-MP2 Energies <==================== 
	-----------------------------------------------------------
	 Reference Energy          =    -204.6144607526179016 [Eh]
	 Singles Energy            =      -0.0000000000000000 [Eh]
	 Same-Spin Energy          =      -0.1915755272138927 [Eh]
	 Opposite-Spin Energy      =      -0.5951591431248549 [Eh]
	 Correlation Energy        =      -0.7867346703387476 [Eh]
	 Total Energy              =    -205.4011954229566470 [Eh]
	-----------------------------------------------------------
	 ================> DF-SCS-MP2 Energies <================== 
	-----------------------------------------------------------
	 SCS Same-Spin Scale       =       0.3333333333333333 [-]
	 SCS Opposite-Spin Scale   =       1.2000000000000000 [-]
	 SCS Same-Spin Energy      =      -0.0638585090712976 [Eh]
	 SCS Opposite-Spin Energy  =      -0.7141909717498258 [Eh]
	 SCS Correlation Energy    =      -0.7780494808211234 [Eh]
	 SCS Total Energy          =    -205.3925102334390260 [Eh]
	-----------------------------------------------------------



Properties will be evaluated at   0.000000,  -0.000000,   0.000000 [a0]

Properties computed using the MP2 density matrix


 Multipole Moments:

 ------------------------------------------------------------------------------------
     Multipole            Electronic (a.u.)      Nuclear  (a.u.)        Total (a.u.)
 ------------------------------------------------------------------------------------

 L = 1.  Multiply by 2.5417464519 to convert [e a0] to [Debye]
 Dipole X            :          0.0000037            0.0000380            0.0000417
 Dipole Y            :          0.0000023            0.0000047            0.0000070
 Dipole Z            :          0.0000181           -0.0000458           -0.0000277
 Magnitude           :                                                    0.0000505

 ------------------------------------------------------------------------------------
  Mulliken Charges: (a.u.)
   Center  Symbol    Alpha    Beta     Spin     Total
       1     N     3.60278  3.60278  0.00000 -0.20555
       2     C     2.69871  2.69871  0.00000  0.60257
       3     N     3.60277  3.60277  0.00000 -0.20555
       4     H     0.41549  0.41549  0.00000  0.16901
       5     H     0.41549  0.41549  0.00000  0.16901
       6     N     3.60278  3.60278  0.00000 -0.20555
       7     H     0.41549  0.41549  0.00000  0.16901
       8     H     0.41549  0.41549  0.00000  0.16902
       9     H     0.41549  0.41549  0.00000  0.16901
      10     H     0.41549  0.41549  0.00000  0.16901

   Total alpha = 16.00000, Total beta = 16.00000, Total charge =  1.00000



  Wiberg Bond Indices using Orthogonal Lowdin Orbitals:

  Irrep: 1 Size: 10 x 10

                 1                   2                   3                   4                   5

    1     0.00000000000000     1.50978470505444     0.35345487099171     0.07580814269287     0.04796852986353
    2     1.50978470505444     0.00000000000000     1.50980373236033     0.35495976767956     0.35496323809282
    3     0.35345487099171     1.50980373236033     0.00000000000000     1.05653405782831     1.05653732042115
    4     0.07580814269287     0.35495976767956     1.05653405782831     0.00000000000000     0.30242746760594
    5     0.04796852986353     0.35496323809282     1.05653732042115     0.30242746760594     0.00000000000000
    6     0.35344647863780     1.50978064406517     0.35345497118011     0.04796810483608     0.07581060913600
    7     1.05654176738906     0.35495853355974     0.04796876800960     0.00830054879281     0.00485044450320
    8     1.05654286472255     0.35496142649970     0.07581108398257     0.02887389067375     0.00830090547851
    9     0.07580988774210     0.35496142230707     0.04796927654575     0.00485044071731     0.00830094331471
   10     0.04796784628602     0.35495946950000     0.07581079408243     0.00830084727400     0.02887487280331

                 6                   7                   8                   9                  10

    1     0.35344647863780     1.05654176738906     1.05654286472255     0.07580988774210     0.04796784628602
    2     1.50978064406517     0.35495853355974     0.35496142649970     0.35496142230707     0.35495946950000
    3     0.35345497118011     0.04796876800960     0.07581108398257     0.04796927654575     0.07581079408243
    4     0.04796810483608     0.00830054879281     0.02887389067375     0.00485044071731     0.00830084727400
    5     0.07581060913600     0.00485044450320     0.00830090547851     0.00830094331471     0.02887487280331
    6     0.00000000000000     0.07580741020327     0.04796787187004     1.05654405707566     1.05654272208865
    7     0.07580741020327     0.00000000000000     0.30242727565967     0.02887391718385     0.00830050390769
    8     0.04796787187004     0.30242727565967     0.00000000000000     0.00830084644349     0.00485040069233
    9     1.05654405707566     0.02887391718385     0.00830084644349     0.00000000000000     0.30242602699687
   10     1.05654272208865     0.00830050390769     0.00485040069233     0.30242602699687     0.00000000000000



  Atomic Valences: 

 #  #
 Irrep: 1
      1:    4.577325093380081
      2:    6.659132939118822
      3:    4.577344875401963
      4:    1.888023268100625
      5:    1.888034331219158
      6:    4.577322869092766
      7:    1.888029169208885
      8:    1.888036566022607
      9:    1.888036818326809
     10:    1.888033483631302


 Electrostatic potential computed on the grid and written to grid_esp.dat

*** tstop() called on DESKTOP-26BCFJT at Thu Nov  3 12:39:13 2022
Module time:
	user time   =     140.77 seconds =       2.35 minutes
	system time =       3.43 seconds =       0.06 minutes
	total time  =         32 seconds =       0.53 minutes
Total time:
	user time   =     158.92 seconds =       2.65 minutes
	system time =       4.06 seconds =       0.07 minutes
	total time  =         36 seconds =       0.60 minutes
  ==> One Electron Grid Properties (v2.0) <==

  ==> CubicScalarGrid <==

    Filepath     = .
    Total Points =           294000
    XYZ Blocking =               10
    X Points     =               75
    Y Points     =               80
    Z Points     =               49
    X Spacing    =        2.000E-01
    Y Spacing    =        2.000E-01
    Z Spacing    =        2.000E-01
    X Minimum    =       -7.246E+00
    Y Minimum    =       -7.880E+00
    Z Minimum    =       -4.766E+00
    X Maximum    =        7.554E+00
    Y Maximum    =        7.920E+00
    Z Maximum    =        4.834E+00

  Basis Set: AUG-CC-PVTZ
    Blend: AUG-CC-PVTZ
    Number of shells: 110
    Number of basis functions: 322
    Number of Cartesian functions: 370
    Spherical Harmonics?: true
    Max angular momentum: 3

*********************************************************************************************************************
When computing potential integrals with different bra and ket basis, the atom definition is taken from the bra basis.
*********************************************************************************************************************
*********************************************************************************************************************
When computing potential integrals with different bra and ket basis, the atom definition is taken from the bra basis.
*********************************************************************************************************************
*********************************************************************************************************************
When computing potential integrals with different bra and ket basis, the atom definition is taken from the bra basis.
*********************************************************************************************************************
*********************************************************************************************************************
When computing potential integrals with different bra and ket basis, the atom definition is taken from the bra basis.
*********************************************************************************************************************
*********************************************************************************************************************
When computing potential integrals with different bra and ket basis, the atom definition is taken from the bra basis.
*********************************************************************************************************************
*********************************************************************************************************************
When computing potential integrals with different bra and ket basis, the atom definition is taken from the bra basis.
*********************************************************************************************************************
   => Loading Basis Set <=

    Name: AUG-CC-PVTZ
    Role: ORBITAL
    Keyword: BASIS
    atoms 1, 3, 6   entry N          line   285 file /home/chase/psi4conda/share/psi4/basis/aug-cc-pvtz.gbs 
    atoms 2         entry C          line   239 file /home/chase/psi4conda/share/psi4/basis/aug-cc-pvtz.gbs 
    atoms 4-5, 7-10 entry H          line    40 file /home/chase/psi4conda/share/psi4/basis/aug-cc-pvtz.gbs 

FCHKWriter: !WARNING! method 'MP2'' renamed to label 'MP2'.
FCHKWriter: Writing guan-esp.fchk with label ' MP2 Density'.

    Psi4 stopped on: Thursday, 03 November 2022 12:39PM
    Psi4 wall time for execution: 0:00:41.78

*** Psi4 exiting successfully. Buy a developer a beer!
