7
 energy: -14.166165575579 gnorm: 0.000666883653 xtb: 6.5.1 (b24c23e)
C           -1.43359763576888       -0.21978017522337       -0.03978654971197
C            0.13551807695010        0.00652176809122       -0.00041775192406
O            0.53076209130062        0.88662139553712        0.77787698900519
O            0.79822648403681       -0.71436522315057       -0.76050043022306
H           -1.85132718269711        0.39297283812725       -0.83922317376925
H           -1.65648141320477       -1.26533548877551       -0.24771377639095
H           -1.88218243061677        0.08004789539386        0.90607269301410
