2022-11-03:12:30:24,108 INFO     [psi4.driver.task_planner:266] PLANNING Atomic:  keywords={'FREEZE_CORE': 'TRUE', 'function_kwargs': {}}
2022-11-03:12:30:24,114 INFO     [psi4.driver.driver:499] Compute energy(): method=wb97x-d, basis=6-311+g*, molecule=default, nre=112.14709971858287
2022-11-03:12:30:33,411 INFO     [psi4.driver.driver:502] Return energy(): -228.51478263950978

    A. Alenaizan, A. M. James, S. Lehtola, J. P. Misiewicz, M. Scheurer,
    R. A. Shaw, J. B. Schriber, Y. Xie, Z. L. Glick, D. A. Sirianni,
    J. S. O'Brien, J. M. Waldrop, A. Kumar, E. G. Hohenstein,
    B. P. Pritchard, B. R. Brooks, H. F. Schaefer III, A. Yu. Sokolov,
    K. Patkowski, A. E. DePrince III, U. Bozkaya, R. A. King,
    F. A. Evangelista, J. M. Turney, T. D. Crawford, C. D. Sherrill,
    J. Chem. Phys. 152(18) 184108 (2020). https://doi.org/10.1063/5.0006002

                            Additional Code Authors
    E. T. Seidl, C. L. Janssen, E. F. Valeev, M. L. Leininger,
    J. F. Gonthier, R. M. Richard, H. R. McAlexander, M. Saitow, X. Wang,
    P. Verma, M. H. Lechner, and A. Jiang

             Previous Authors, Complete List of Code Contributors,
                       and Citations for Specific Modules
    https://github.com/psi4/psi4/blob/master/codemeta.json
    https://github.com/psi4/psi4/graphs/contributors
    http://psicode.org/psi4manual/master/introduction.html#citing-psifour

    -----------------------------------------------------------------------


    Psi4 started on: Thursday, 03 November 2022 12:30PM

    Process ID: 4273
    Host:       DESKTOP-26BCFJT
    PSIDATADIR: /home/chase/psi4conda/share/psi4
    Memory:     500.0 MiB
    Threads:    1
    
  ==> Input File <==

--------------------------------------------------------------------------
molecule { 
-1 1
 C   -1.434280   -0.207022   -0.050946
 C    0.133409    0.016786   -0.000325
 O    0.697508    0.106631   -1.100512
 O    0.630270    0.066927    1.134283
 H   -1.906236    0.236820    0.824646
 H   -1.847972    0.226072   -0.960682
 H   -1.631779   -1.279531   -0.050154
}
memory 1GB
set_num_threads(2)
psi4_io.set_default_path("/home/chase/temp/Psi4-acet")
set freeze_core True
E, wfn = energy('wb97x-d/6-311+G*',return_wfn=True)
oeprop(wfn,"WIBERG_LOWDIN_INDICES")
clean()
--------------------------------------------------------------------------

  Memory set to 953.674 MiB by Python driver.
  Threads set to 2 by Python driver.

Scratch directory: /home/chase/temp/Psi4-acet/

*** tstart() called on DESKTOP-26BCFJT
*** at Thu Nov  3 12:30:24 2022

   => Loading Basis Set <=

    Name: 6-311+G*
    Role: ORBITAL
    Keyword: BASIS
    atoms 1-2 entry C          line   130 file /home/chase/psi4conda/share/psi4/basis/6-311pgs.gbs 
    atoms 3-4 entry O          line   172 file /home/chase/psi4conda/share/psi4/basis/6-311pgs.gbs 
    atoms 5-7 entry H          line    47 file /home/chase/psi4conda/share/psi4/basis/6-311pgs.gbs 

   => WB97X-D: Empirical Dispersion <=

    Chai and Head-Gordon Dispersion Correction
    Chai, J.-D.; Head-Gordon, M. (2010), J. Chem. Phys., 132: 6615-6620

        s6 =       1.000000


         ---------------------------------------------------------
                                   SCF
               by Justin Turney, Rob Parrish, Andy Simmonett
                          and Daniel G. A. Smith
                              RKS Reference
                        2 Threads,    953 MiB Core
         ---------------------------------------------------------

  ==> Geometry <==

    Molecular point group: c1
    Full point group: C1

    Geometry (in Angstrom), charge = -1, multiplicity = 1:

       Center              X                  Y                   Z               Mass       
    ------------   -----------------  -----------------  -----------------  -----------------
         C           -1.437654005644    -0.201433161370    -0.046493873753    12.000000000000
         C            0.130034994356     0.022374838630     0.004127126247    12.000000000000
         O            0.694133994356     0.112219838630    -1.096059873753    15.994914619570
         O            0.626895994356     0.072515838630     1.138735126247    15.994914619570
         H           -1.909610005644     0.242408838630     0.829098126247     1.007825032230
         H           -1.851346005644     0.231660838630    -0.956229873753     1.007825032230
         H           -1.635153005644    -1.273942161370    -0.045701873753     1.007825032230

  Running in c1 symmetry.

  Rotational constants: A =      0.39047  B =      0.32829  C =      0.18449 [cm^-1]
  Rotational constants: A =  11705.88650  B =   9841.90976  C =   5530.91075 [MHz]
  Nuclear repulsion =  112.147099718582865

  Charge       = -1
  Multiplicity = 1
  Electrons    = 32
  Nalpha       = 16
  Nbeta        = 16

  ==> Algorithm <==

  SCF Algorithm Type is DF.
  DIIS enabled.
  MOM disabled.
  Fractional occupation disabled.
  Guess Type is SAD.
  Energy threshold   = 1.00e-06
  Density threshold  = 1.00e-06
  Integral threshold = 1.00e-12

  ==> Primary Basis <==

  Basis Set: 6-311+G*
    Blend: 6-311+G*
    Number of shells: 49
    Number of basis functions: 97
    Number of Cartesian functions: 101
    Spherical Harmonics?: true
    Max angular momentum: 2

  ==> DFT Potential <==

   => LibXC <=

    Version 5.1.5
    S. Lehtola, C. Steigemann, M. J. Oliveira, and M. A. Marques, SoftwareX 7, 1 (2018) (10.1016/j.softx.2017.11.002)

   => Composite Functional: WB97X-D <= 

    wB97X-D Hyb-GGA Exchange-Correlation Functional

    J.-D. Chai and M. Head-Gordon, Phys. Chem. Chem. Phys. 10, 6615 (2008) (10.1039/B810189B)

    Deriv               =              1
    GGA                 =           TRUE
    Meta                =          FALSE

    Exchange Hybrid     =           TRUE
    MP2 Hybrid          =          FALSE

   => Exchange-Correlation Functionals <=

    1.0000   wB97X-D range-separated functional

   => Exact (HF) Exchange <=

    0.7780            HF,LR [omega = 0.2000]
    0.2220               HF 

   => LibXC Density Thresholds  <==

    XC_HYB_GGA_XC_WB97X_D:  1.00E-14 

   => Molecular Quadrature <=

    Radial Scheme          =       TREUTLER
    Pruning Scheme         =           NONE
    Nuclear Scheme         =       TREUTLER

    Blocking Scheme        =         OCTREE
    BS radius alpha        =              1
    Pruning alpha          =              1
    Radial Points          =             75
    Spherical Points       =            302
    Total Points           =         152676
    Total Blocks           =           1208
    Max Points             =            256
    Max Functions          =             97
    Weights Tolerance      =       1.00E-15

   => Loading Basis Set <=

    Name: (6-311+G* AUX)
    Role: JKFIT
    Keyword: DF_BASIS_SCF
    atoms 1-2 entry C          line   200 file /home/chase/psi4conda/share/psi4/basis/heavy-aug-cc-pvtz-jkfit.gbs 
    atoms 3-4 entry O          line   324 file /home/chase/psi4conda/share/psi4/basis/heavy-aug-cc-pvtz-jkfit.gbs 
    atoms 5-7 entry H          line   116 file /home/chase/psi4conda/share/psi4/basis/heavy-aug-cc-pvtz-jkfit.gbs 

  ==> Integral Setup <==

  DFHelper Memory: AOs need 0.110 GiB; user supplied 0.343 GiB. Using in-core AOs.

  ==> MemDFJK: Density-Fitted J/K Matrices <==

    J tasked:                   Yes
    K tasked:                   Yes
    wK tasked:                  Yes
    Omega:                2.000E-01
    OpenMP threads:               2
    Memory [MiB]:               351
    Algorithm:                 Core
    Schwarz Cutoff:           1E-12
    Mask sparsity (%):       0.6377
    Fitting Condition:        1E-10

   => Auxiliary Basis Set <=

  Basis Set: (6-311+G* AUX)
    Blend: HEAVY-AUG-CC-PVTZ-JKFIT
    Number of shells: 150
    Number of basis functions: 506
    Number of Cartesian functions: 629
    Spherical Harmonics?: true
    Max angular momentum: 4

  Cached 100.0% of DFT collocation blocks in 0.356 [GiB].

  Minimum eigenvalue in the overlap matrix is 2.2889244295E-04.
  Reciprocal condition number of the overlap matrix is 2.7057876324E-05.
    Using symmetric orthogonalization.

  ==> Pre-Iterations <==

  SCF Guess: Superposition of Atomic Densities via on-the-fly atomic UHF (no occupation information).

   -------------------------
    Irrep   Nso     Nmo    
   -------------------------
     A         97      97 
   -------------------------
    Total      97      97
   -------------------------

  ==> Iterations <==

                           Total Energy        Delta E     RMS |[F,P]|

   @DF-RKS iter SAD:  -227.56747076073026   -2.27567e+02   0.00000e+00 
   @DF-RKS iter   1:  -228.16624178415543   -5.98771e-01   9.50445e-03 ADIIS/DIIS
   @DF-RKS iter   2:  -228.16055059682120    5.69119e-03   1.02737e-02 ADIIS/DIIS
   @DF-RKS iter   3:  -228.50883312648313   -3.48283e-01   1.22953e-03 ADIIS/DIIS
   @DF-RKS iter   4:  -228.51434578268217   -5.51266e-03   2.92748e-04 ADIIS/DIIS
   @DF-RKS iter   5:  -228.51476295370858   -4.17171e-04   4.42398e-05 DIIS
   @DF-RKS iter   6:  -228.51478074240222   -1.77887e-05   1.64120e-05 DIIS
   @DF-RKS iter   7:  -228.51478235981816   -1.61742e-06   3.74705e-06 DIIS
   @DF-RKS iter   8:  -228.51478262161143   -2.61793e-07   1.15507e-06 DIIS
   @DF-RKS iter   9:  -228.51478263426580   -1.26544e-08   1.12204e-06 DIIS
   @DF-RKS iter  10:  -228.51478263950978   -5.24398e-09   1.46497e-07 DIIS
  Energy and wave function converged.


  ==> Post-Iterations <==

   Electrons on quadrature grid:
      Ntotal   =   32.0000091427 ; deviation = 9.143e-06 

    Orbital Energies [Eh]
    ---------------------

    Doubly Occupied:                                                      

       1A    -18.980516     2A    -18.980446     3A    -10.169061  
       4A    -10.094999     5A     -0.929760     6A     -0.839705  
       7A     -0.628957     8A     -0.390509     9A     -0.338940  
      10A     -0.326941    11A     -0.316718    12A     -0.277528  
      13A     -0.256378    14A     -0.132565    15A     -0.118239  
      16A     -0.115065  

    Virtual:                                                              

      17A      0.198121    18A      0.239560    19A      0.241203  
      20A      0.245538    21A      0.274058    22A      0.278359  
      23A      0.281497    24A      0.327460    25A      0.335879  
      26A      0.385615    27A      0.399348    28A      0.432155  
      29A      0.455793    30A      0.471429    31A      0.479862  
      32A      0.480355    33A      0.519908    34A      0.528534  
      35A      0.542529    36A      0.568377    37A      0.576429  
      38A      0.670565    39A      0.702255    40A      0.739114  
      41A      0.742073    42A      0.778790    43A      0.862332  
      44A      0.864572    45A      0.913730    46A      0.943091  
      47A      0.971746    48A      1.031298    49A      1.131759  
      50A      1.151296    51A      1.359899    52A      1.380207  
      53A      1.425841    54A      1.455108    55A      1.470300  
      56A      1.473924    57A      1.488547    58A      1.662014  
      59A      1.735033    60A      1.789777    61A      1.843823  
      62A      1.890403    63A      1.892000    64A      1.941046  
      65A      1.993669    66A      2.195283    67A      2.268932  
      68A      2.277418    69A      2.734665    70A      2.736787  
      71A      2.756772    72A      2.941146    73A      3.156684  
      74A      3.157070    75A      3.162018    76A      3.204566  
      77A      3.260223    78A      3.368930    79A      3.435180  
      80A      3.574819    81A      3.620606    82A      3.689245  
      83A      3.734748    84A      3.844320    85A      3.981915  
      86A      4.283118    87A      4.343224    88A      5.355767  
      89A      5.398681    90A      5.419665    91A      5.508348  
      92A      5.881697    93A      6.197014    94A     23.837852  
      95A     24.206895    96A     50.285295    97A     50.380528  

    Final Occupation by Irrep:
              A 
    DOCC [    16 ]

  @DF-RKS Final Energy:  -228.51478263950978

   => Energetics <=

    Nuclear Repulsion Energy =            112.1470997185828651
    One-Electron Energy =                -541.6706429915584522
    Two-Electron Energy =                 221.3982475199795203
    DFT Exchange-Correlation Energy =     -20.3881784308631779
    Empirical Dispersion Energy =          -0.0013084556505247
    VV10 Nonlocal Energy =                  0.0000000000000000
    Total Energy =                       -228.5147826395097752

Computation Completed


Properties will be evaluated at   0.000000,   0.000000,   0.000000 [a0]

Properties computed using the SCF density matrix


 Multipole Moments:

 ------------------------------------------------------------------------------------
     Multipole            Electronic (a.u.)      Nuclear  (a.u.)        Total (a.u.)
 ------------------------------------------------------------------------------------

 L = 1.  Multiply by 2.5417464519 to convert [e a0] to [Debye]
 Dipole X            :          3.7000452           -5.0523400           -1.3522948
 Dipole Y            :          0.5628771           -0.7489684           -0.1860912
 Dipole Z            :          0.1177838           -0.1618212           -0.0440374
 Magnitude           :                                                    1.3657490

 ------------------------------------------------------------------------------------

*** tstop() called on DESKTOP-26BCFJT at Thu Nov  3 12:30:33 2022
Module time:
	user time   =      17.25 seconds =       0.29 minutes
	system time =       0.56 seconds =       0.01 minutes
	total time  =          9 seconds =       0.15 minutes
Total time:
	user time   =      17.25 seconds =       0.29 minutes
	system time =       0.56 seconds =       0.01 minutes
	total time  =          9 seconds =       0.15 minutes


Properties will be evaluated at   0.000000,   0.000000,   0.000000 [a0]
OEProp: No title given, name of density matrix used for the following properties is 'SCF density'


  Wiberg Bond Indices using Orthogonal Lowdin Orbitals:

  Irrep: 1 Size: 7 x 7

                 1                   2                   3                   4                   5

    1     0.00000000000000     1.04576048291003     0.18157501617823     0.18179763910562     0.91896084679808
    2     1.04576048291003     0.00000000000000     2.12149674820166     2.12121407888453     0.04002808524197
    3     0.18157501617823     2.12149674820166     0.00000000000000     0.29087393192775     0.00964007865807
    4     0.18179763910562     2.12121407888453     0.29087393192775     0.00000000000000     0.01838724946615
    5     0.91896084679808     0.04002808524197     0.00964007865807     0.01838724946615     0.00000000000000
    6     0.91913883182400     0.03992543141305     0.01861691493899     0.00951120047546     0.01017259467322
    7     0.91547313196809     0.04262993784092     0.01251035798042     0.01272434316875     0.00895016512524

                 6                   7

    1     0.91913883182400     0.91547313196809
    2     0.03992543141305     0.04262993784092
    3     0.01861691493899     0.01251035798042
    4     0.00951120047546     0.01272434316875
    5     0.01017259467322     0.00895016512524
    6     0.00000000000000     0.00901182616437
    7     0.00901182616437     0.00000000000000



  Atomic Valences: 

 #  #
 Irrep: 1
      1:    4.162705948784048
      2:    5.411054764492156
      3:    2.634713047885115
      4:    2.634508443028252
      5:    1.006139019962732
      6:    1.006376799489089
      7:    1.001299762247794


    Psi4 stopped on: Thursday, 03 November 2022 12:30PM
    Psi4 wall time for execution: 0:00:09.39

*** Psi4 exiting successfully. Buy a developer a beer!
