7
 energy: -14.166166136164 gnorm: 0.000370240144 xtb: 6.5.1 (b24c23e)
C           -1.43594693628721       -0.19444686664420       -0.05363530734152
C            0.13620973954362       -0.00099603551827       -0.00148646349910
O            0.59773482583509        0.33122094645966        1.09992173910289
O            0.73753192499741       -0.21322210308380       -1.06439834731325
H           -1.80569158879079       -0.00829749591715       -1.06098782872533
H           -1.66794532419108       -1.22357716980358        0.22238535700109
H           -1.92097264110703        0.47600073450734        0.65450784077522
