      -----------------------------------------------------------      
     |                   =====================                   |     
     |                           x T B                           |     
     |                   =====================                   |     
     |                         S. Grimme                         |     
     |          Mulliken Center for Theoretical Chemistry        |     
     |                    University of Bonn                     |     
      -----------------------------------------------------------      

   * xtb version 6.5.1 (b24c23e) compiled by 'conda@728c89f4b128' on 2022-07-12

   xtb is free software: you can redistribute it and/or modify it under
   the terms of the GNU Lesser General Public License as published by
   the Free Software Foundation, either version 3 of the License, or
   (at your option) any later version.
   
   xtb is distributed in the hope that it will be useful,
   but WITHOUT ANY WARRANTY; without even the implied warranty of
   MERCHANTABILITY or FITNESS FOR A PARTICULAR PURPOSE.  See the
   GNU Lesser General Public License for more details.
   
   Cite this work as:
   * C. Bannwarth, E. Caldeweyher, S. Ehlert, A. Hansen, P. Pracht,
     J. Seibert, S. Spicher, S. Grimme, WIREs Comput. Mol. Sci., 2020, 11,
     e01493. DOI: 10.1002/wcms.1493
   
   for GFN2-xTB:
   * C. Bannwarth, S. Ehlert and S. Grimme., J. Chem. Theory Comput., 2019,
     15, 1652-1671. DOI: 10.1021/acs.jctc.8b01176
   for GFN1-xTB:
   * S. Grimme, C. Bannwarth, P. Shushkov, J. Chem. Theory Comput., 2017,
     13, 1989-2009. DOI: 10.1021/acs.jctc.7b00118
   for GFN0-xTB:
   * P. Pracht, E. Caldeweyher, S. Ehlert, S. Grimme, ChemRxiv, 2019, preprint.
     DOI: 10.26434/chemrxiv.8326202.v1
   for GFN-FF:
   * S. Spicher and S. Grimme, Angew. Chem. Int. Ed., 2020, 59, 15665-15673.
     DOI: 10.1002/anie.202004239
   
   for ALPB and GBSA implicit solvation:
   * S. Ehlert, M. Stahn, S. Spicher, S. Grimme, J. Chem. Theory Comput.,
     2021, 17, 4250-4261. DOI: 10.1021/acs.jctc.1c00471
   
   for DFT-D4:
   * E. Caldeweyher, C. Bannwarth and S. Grimme, J. Chem. Phys., 2017,
     147, 034112. DOI: 10.1063/1.4993215
   * E. Caldeweyher, S. Ehlert, A. Hansen, H. Neugebauer, S. Spicher,
     C. Bannwarth and S. Grimme, J. Chem. Phys., 2019, 150, 154122.
     DOI: 10.1063/1.5090222
   * E. Caldeweyher, J.-M. Mewes, S. Ehlert and S. Grimme, Phys. Chem. Chem. Phys.
     2020, 22, 8499-8512. DOI: 10.1039/D0CP00502A
   
   for sTDA-xTB:
   * S. Grimme and C. Bannwarth, J. Chem. Phys., 2016, 145, 054103.
     DOI: 10.1063/1.4959605
   
   in the mass-spec context:
   * V. Asgeirsson, C. Bauer and S. Grimme, Chem. Sci., 2017, 8, 4879.
     DOI: 10.1039/c7sc00601b
   * J. Koopman and S. Grimme, ACS Omega 2019, 4, 12, 15120-15133.
     DOI: 10.1021/acsomega.9b02011
   
   for metadynamics refer to:
   * S. Grimme, J. Chem. Theory Comput., 2019, 155, 2847-2862
     DOI: 10.1021/acs.jctc.9b00143
   
   for SPH calculations refer to:
   * S. Spicher and S. Grimme, J. Chem. Theory Comput., 2021, 17, 1701-1714
     DOI: 10.1021/acs.jctc.0c01306
   
   with help from (in alphabetical order)
   P. Atkinson, C. Bannwarth, F. Bohle, G. Brandenburg, E. Caldeweyher
   M. Checinski, S. Dohm, S. Ehlert, S. Ehrlich, I. Gerasimov, C. Hölzer
   A. Katbashev, J. Koopman, C. Lavigne, S. Lehtola, F. März, M. Müller,
   F. Musil, H. Neugebauer, J. Pisarek, C. Plett, P. Pracht, F. Pultar,
   J. Seibert, P. Shushkov, S. Spicher, M. Stahn, M. Steiner, T. Strunk,
   J. Stückrath, T. Rose, and J. Unsleber
   
 * started run on 2022/11/03 at 12:29:18.859     

           -------------------------------------------------
          |                Calculation Setup                |
           -------------------------------------------------

          program call               : /home/chase/psi4conda/envs/xtbenv/bin/xtb --gfn 2 --chrg -1 --uhf 0 acet-opt-1-2-002_preQMOPTprefit_xyzformat.xyz --opt --input xtb-opt-1-2-002_constr.txt
          coordinate file            : acet-opt-1-2-002_preQMOPTprefit_xyzformat.xyz
          omp threads                :                     8

   ID    Z sym.   atoms
    1    6 C      1, 2
    2    8 O      3, 4
    3    1 H      5-7
constraining angle 6 1 2 3 to    1.9992783°, actual value:    1.9992783°

           -------------------------------------------------
          |                 G F N 2 - x T B                 |
           -------------------------------------------------

        Reference                      10.1021/acs.jctc.8b01176
      * Hamiltonian:
        H0-scaling (s, p, d)           1.850000    2.230000    2.230000
        zeta-weighting                 0.500000
      * Dispersion:
        s8                             2.700000
        a1                             0.520000
        a2                             5.000000
        s9                             5.000000
      * Repulsion:
        kExp                           1.500000    1.000000
        rExp                           1.000000
      * Coulomb:
        alpha                          2.000000
        third order                    shell-resolved
        anisotropic                    true
        a3                             3.000000
        a5                             4.000000
        cn-shift                       1.200000
        cn-exp                         4.000000
        max-rad                        5.000000

q/qsh data taken from xtbrestart
CAMM data taken from xtbrestart

          ...................................................
          :                      SETUP                      :
          :.................................................:
          :  # basis functions                  19          :
          :  # atomic orbitals                  19          :
          :  # shells                           11          :
          :  # electrons                        24          :
          :  max. iterations                   250          :
          :  Hamiltonian                  GFN2-xTB          :
          :  restarted?                       true          :
          :  GBSA solvation                  false          :
          :  PC potential                    false          :
          :  electronic temp.          300.0000000     K    :
          :  accuracy                    1.0000000          :
          :  -> integral cutoff          0.2500000E+02      :
          :  -> integral neglect         0.1000000E-07      :
          :  -> SCF convergence          0.1000000E-05 Eh   :
          :  -> wf. convergence          0.1000000E-03 e    :
          :  Broyden damping             0.4000000          :
          ...................................................

 iter      E             dE          RMSdq      gap      omega  full diag
   1    -14.2697060 -0.142697E+02  0.126E+00    5.01       0.0  T
   2    -14.2699227 -0.216727E-03  0.744E-01    5.08       1.0  T
   3    -14.2698914  0.312613E-04  0.126E-01    5.02       1.0  T
   4    -14.2699647 -0.732667E-04  0.308E-02    5.06       1.2  T
   5    -14.2699657 -0.103300E-05  0.189E-02    5.06       2.0  T
   6    -14.2699659 -0.175075E-06  0.228E-03    5.06      16.6  T
   7    -14.2699659 -0.262823E-08  0.216E-04    5.06     175.1  T
   8    -14.2699659 -0.247908E-10  0.931E-05    5.06     406.0  T

   *** convergence criteria satisfied after 8 iterations ***

         #    Occupation            Energy/Eh            Energy/eV
      -------------------------------------------------------------
         1        2.0000           -0.4556813             -12.3997
       ...           ...                  ...                  ...
         6        2.0000           -0.3071202              -8.3572
         7        2.0000           -0.3050220              -8.3001
         8        2.0000           -0.2725076              -7.4153
         9        2.0000           -0.2672501              -7.2722
        10        2.0000           -0.1841042              -5.0097
        11        2.0000           -0.1709824              -4.6527
        12        2.0000           -0.1562815              -4.2526 (HOMO)
        13                          0.0295546               0.8042 (LUMO)
        14                          0.2926480               7.9634
        15                          0.3308121               9.0019
        16                          0.3554621               9.6726
        17                          0.3718250              10.1179
       ...                                ...                  ...
        19                          0.8230544              22.3965
      -------------------------------------------------------------
                  HL-Gap            0.1858361 Eh            5.0569 eV
             Fermi-level           -0.0633634 Eh           -1.7242 eV

 SCC (total)                   0 d,  0 h,  0 min,  0.174 sec
 SCC setup                      ...        0 min,  0.005 sec (  3.118%)
 Dispersion                     ...        0 min,  0.016 sec (  9.197%)
 classical contributions        ...        0 min,  0.007 sec (  4.307%)
 integral evaluation            ...        0 min,  0.022 sec ( 12.437%)
 iterations                     ...        0 min,  0.089 sec ( 51.431%)
 molecular gradient             ...        0 min,  0.034 sec ( 19.421%)
 printout                       ...        0 min,  0.000 sec (  0.081%)

         :::::::::::::::::::::::::::::::::::::::::::::::::::::
         ::                     SUMMARY                     ::
         :::::::::::::::::::::::::::::::::::::::::::::::::::::
         :: total energy             -14.164653055879 Eh    ::
         :: gradient norm              0.044724347524 Eh/a0 ::
         :: HOMO-LUMO gap              5.056858444443 eV    ::
         ::.................................................::
         :: SCC energy               -14.269965919164 Eh    ::
         :: -> isotropic ES            0.207697918716 Eh    ::
         :: -> anisotropic ES          0.005010812262 Eh    ::
         :: -> anisotropic XC         -0.000474815463 Eh    ::
         :: -> dispersion             -0.003133663244 Eh    ::
         :: repulsion energy           0.105312576651 Eh    ::
         :: add. restraining           0.000000000000 Eh    ::
         :: total charge              -1.000000000000 e     ::
         :::::::::::::::::::::::::::::::::::::::::::::::::::::

      ----------------------------------------------------------- 
     |                   =====================                   |
     |                        A N C O P T                        |
     |                   =====================                   |
     |               Approximate Normal Coordinate               |
     |                Rational Function Optimizer                |
      ----------------------------------------------------------- 

          ...................................................
          :                      SETUP                      :
          :.................................................:
          :   optimization level            normal          :
          :   max. optcycles                   200          :
          :   ANC micro-cycles                  20          :
          :   degrees of freedom                15          :
          :.................................................:
          :   RF solver                   davidson          :
          :   write xtbopt.log                true          :
          :   linear?                        false          :
          :   energy convergence         0.5000000E-05 Eh   :
          :   grad. convergence          0.1000000E-02 Eh/α :
          :   maximium RF displ.         1.0000000          :
          :   Hlow (freq-cutoff)         0.1000000E-01      :
          :   Hmax (freq-cutoff)         5.0000000          :
          :   S6 in model hess.         20.0000000          :
          ...................................................

generating ANC from model Hessian ...
Using Lindh-Hessian (1995)
 Shifting diagonal of input Hessian by    0.0000000000000000     
 Lowest  eigenvalues of input Hessian
    0.000000    0.000000    0.000000    0.000000    0.000000    0.000000
    0.023449    0.038408    0.042911    0.072174    0.095112    0.096841
    0.146609    0.265297    0.520686    0.745997    0.850436    1.085782
 Highest eigenvalues
    0.745997    0.850436    1.085782    1.565204    2.269630    8.707679


........................................................................
.............................. CYCLE    1 ..............................
........................................................................
   1    -14.2699659 -0.142700E+02  0.250E-05    5.06       0.0  T
   2    -14.2699659 -0.259348E-12  0.147E-05    5.06    2567.0  T
   3    -14.2699659 -0.301981E-13  0.422E-06    5.06    8958.1  T
     SCC iter.                  ...        0 min,  0.062 sec
     gradient                   ...        0 min,  0.032 sec
 * total energy  :   -14.1646531 Eh     change       -0.1348255E-11 Eh
   gradient norm :     0.0447242 Eh/α   predicted     0.0000000E+00 (-100.00%)
   displ. norm   :     0.0641104 α      lambda       -0.2277500E-02
   maximum displ.:     0.0512235 α      in ANC's #9, #2, #13, ...

........................................................................
.............................. CYCLE    2 ..............................
........................................................................
   1    -14.2813079 -0.142813E+02  0.184E-01    5.32       0.0  T
   2    -14.2814047 -0.968334E-04  0.109E-01    5.26       1.0  T
   3    -14.2814183 -0.135450E-04  0.602E-02    5.28       1.0  T
   4    -14.2814191 -0.849530E-06  0.805E-03    5.28       4.7  T
   5    -14.2814192 -0.749858E-07  0.425E-03    5.28       8.9  T
   6    -14.2814192 -0.701200E-08  0.654E-04    5.28      57.8  T
   7    -14.2814192 -0.103965E-09  0.766E-05    5.28     493.7  T
     SCC iter.                  ...        0 min,  0.100 sec
     gradient                   ...        0 min,  0.034 sec
 * total energy  :   -14.1660440 Eh     change       -0.1390919E-02 Eh
   gradient norm :     0.0114190 Eh/α   predicted    -0.1143431E-02 ( -17.79%)
   displ. norm   :     0.0235601 α      lambda       -0.1874420E-03
   maximum displ.:     0.0149542 α      in ANC's #9, #2, #13, ...

........................................................................
.............................. CYCLE    3 ..............................
........................................................................
   1    -14.2841559 -0.142842E+02  0.578E-02    5.35       0.0  T
   2    -14.2841679 -0.120346E-04  0.308E-02    5.34       1.2  T
   3    -14.2841688 -0.843130E-06  0.181E-02    5.34       2.1  T
   4    -14.2841688 -0.231599E-07  0.340E-03    5.34      11.1  T
   5    -14.2841689 -0.389052E-07  0.126E-03    5.34      30.1  T
   6    -14.2841689 -0.102106E-08  0.244E-04    5.34     155.2  T
   7    -14.2841689 -0.106120E-10  0.197E-05    5.34    1921.9  T
     SCC iter.                  ...        0 min,  0.085 sec
     gradient                   ...        0 min,  0.036 sec
 * total energy  :   -14.1661443 Eh     change       -0.1003309E-03 Eh
   gradient norm :     0.0030318 Eh/α   predicted    -0.9377382E-04 (  -6.54%)
   displ. norm   :     0.0130521 α      lambda       -0.1660162E-04
   maximum displ.:     0.0108977 α      in ANC's #1, #8, #6, ...

........................................................................
.............................. CYCLE    4 ..............................
........................................................................
   1    -14.2841373 -0.142841E+02  0.214E-02    5.34       0.0  T
   2    -14.2841380 -0.691048E-06  0.122E-02    5.34       3.1  T
   3    -14.2841380 -0.180223E-07  0.571E-03    5.34       6.6  T
   4    -14.2841380 -0.345059E-08  0.801E-04    5.34      47.2  T
   5    -14.2841380 -0.325109E-09  0.343E-04    5.34     110.1  T
     SCC iter.                  ...        0 min,  0.071 sec
     gradient                   ...        0 min,  0.033 sec
 * total energy  :   -14.1661508 Eh     change       -0.6517928E-05 Eh
   gradient norm :     0.0025117 Eh/α   predicted    -0.8301276E-05 (  27.36%)
   displ. norm   :     0.0106259 α      lambda       -0.1083258E-04
   maximum displ.:     0.0091695 α      in ANC's #1, #6, #11, ...

........................................................................
.............................. CYCLE    5 ..............................
........................................................................
   1    -14.2839399 -0.142839E+02  0.172E-02    5.34       0.0  T
   2    -14.2839403 -0.395747E-06  0.102E-02    5.34       3.7  T
   3    -14.2839403 -0.141806E-07  0.464E-03    5.34       8.1  T
   4    -14.2839403 -0.486210E-08  0.896E-04    5.34      42.2  T
   5    -14.2839403 -0.158047E-08  0.416E-04    5.34      90.9  T
     SCC iter.                  ...        0 min,  0.058 sec
     gradient                   ...        0 min,  0.032 sec
 * total energy  :   -14.1661547 Eh     change       -0.3859058E-05 Eh
   gradient norm :     0.0012683 Eh/α   predicted    -0.5417876E-05 (  40.39%)
   displ. norm   :     0.0044298 α      lambda       -0.1522992E-05
   maximum displ.:     0.0025683 α      in ANC's #1, #2, #8, ...

........................................................................
.............................. CYCLE    6 ..............................
........................................................................
   1    -14.2839859 -0.142840E+02  0.694E-03    5.33       0.0  T
   2    -14.2839859 -0.471706E-07  0.404E-03    5.33       9.4  T
   3    -14.2839859 -0.720542E-09  0.169E-03    5.33      22.4  T
   4    -14.2839859 -0.115206E-08  0.237E-04    5.33     159.7  T
   5    -14.2839859 -0.227889E-09  0.703E-05    5.33     537.6  T
     SCC iter.                  ...        0 min,  0.057 sec
     gradient                   ...        0 min,  0.033 sec
 * total energy  :   -14.1661556 Eh     change       -0.8884026E-06 Eh
   gradient norm :     0.0007957 Eh/α   predicted    -0.7627265E-06 ( -14.15%)
   displ. norm   :     0.0009273 α      lambda       -0.2198033E-06
   maximum displ.:     0.0004871 α      in ANC's #13, #2, #11, ...

   *** GEOMETRY OPTIMIZATION CONVERGED AFTER 6 ITERATIONS ***

------------------------------------------------------------------------
 total energy gain   :        -0.0015025 Eh       -0.9428 kcal/mol
 total RMSD          :         0.0312462 a0        0.0165 Å
 total power (kW/mol):        -0.6574755 (step)   -4.5645 (real)
------------------------------------------------------------------------

 ANCopt (total)                0 d,  0 h,  0 min,  0.864 sec
 optimizer setup                ...        0 min,  0.000 sec (  0.006%)
 model hessian                  ...        0 min,  0.009 sec (  1.023%)
 ANC generation                 ...        0 min,  0.000 sec (  0.020%)
 coordinate transformation      ...        0 min,  0.000 sec (  0.002%)
 single point calculation       ...        0 min,  0.836 sec ( 96.724%)
 optimization log               ...        0 min,  0.000 sec (  0.048%)
 hessian update                 ...        0 min,  0.018 sec (  2.101%)
 rational function              ...        0 min,  0.000 sec (  0.043%)

================
 final structure:
================
7
 xtb: 6.5.1 (b24c23e)
C           -1.43298682438397       -0.21491856095048       -0.05692463854383
C            0.13461946625012        0.01196628904639       -0.00379010806034
O            0.65606234427037        0.42873989201916       -1.04805620086284
O            0.67130887420601       -0.25154350183093        1.08215885801455
H           -1.91445136675355        0.43476223153081        0.67377976678868
H           -1.81615735096774        0.00731255917034       -1.05187578907329
H           -1.65747714262123       -1.24963591898529        0.20101710173706

 Bond Distances (Angstroems)
 ---------------------------
C1-C2=1.5848         C1-H5=1.0899         C1-H6=1.0891         C1-H7=1.0898         C2-C1=1.5848         C2-O3=1.2394         
C2-O4=1.2397         O3-C2=1.2394         O4-C2=1.2397         H5-C1=1.0899         H6-C1=1.0891         H7-C1=1.0898         
 C  H  Rav=1.0896 sigma=0.0003  Rmin=1.0891  Rmax=1.0899     3
 C  C  Rav=1.5848 sigma=0.0000  Rmin=1.5848  Rmax=1.5848     1
 O  C  Rav=1.2395 sigma=0.0001  Rmin=1.2394  Rmax=1.2397     2

 selected bond angles (degree)
 --------------------
H5-C1-C2=109.22                H6-C1-C2=110.45                H6-C1-H5=109.60                H7-C1-C2=109.38                
H7-C1-H5=108.44                H7-C1-H6=109.72                O3-C2-C1=115.85                O4-C2-C1=115.29                
O4-C2-O3=128.86                

 selected dihedral angles (degree)
 ---------------------------------
O3-C2-C1-H5=241.40            O3-C2-C1-H6=  2.01            O3-C2-C1-H7=122.87            O4-C2-C1-H5= 61.30            
O4-C2-C1-H6=181.91            O4-C2-C1-H7=302.77            
           -------------------------------------------------
          |                Final Singlepoint                |
           -------------------------------------------------

          ...................................................
          :                      SETUP                      :
          :.................................................:
          :  # basis functions                  19          :
          :  # atomic orbitals                  19          :
          :  # shells                           11          :
          :  # electrons                        24          :
          :  max. iterations                   250          :
          :  Hamiltonian                  GFN2-xTB          :
          :  restarted?                      false          :
          :  GBSA solvation                  false          :
          :  PC potential                    false          :
          :  electronic temp.          300.0000000     K    :
          :  accuracy                    1.0000000          :
          :  -> integral cutoff          0.2500000E+02      :
          :  -> integral neglect         0.1000000E-07      :
          :  -> SCF convergence          0.1000000E-05 Eh   :
          :  -> wf. convergence          0.1000000E-03 e    :
          :  Broyden damping             0.4000000          :
          ...................................................

 iter      E             dE          RMSdq      gap      omega  full diag
   1    -14.2839859 -0.142840E+02  0.139E-05    5.33       0.0  T
   2    -14.2839859 -0.408562E-13  0.830E-06    5.33    4551.3  T
   3    -14.2839859 -0.124345E-13  0.118E-06    5.33   32160.6  T

   *** convergence criteria satisfied after 3 iterations ***

         #    Occupation            Energy/Eh            Energy/eV
      -------------------------------------------------------------
         1        2.0000           -0.4589161             -12.4877
       ...           ...                  ...                  ...
         6        2.0000           -0.3064166              -8.3380
         7        2.0000           -0.3053782              -8.3098
         8        2.0000           -0.2749512              -7.4818
         9        2.0000           -0.2671095              -7.2684
        10        2.0000           -0.1846275              -5.0240
        11        2.0000           -0.1693604              -4.6085
        12        2.0000           -0.1544389              -4.2025 (HOMO)
        13                          0.0415889               1.1317 (LUMO)
        14                          0.2950545               8.0288
        15                          0.3417724               9.3001
        16                          0.3827923              10.4163
        17                          0.3920939              10.6694
       ...                                ...                  ...
        19                          0.8796693              23.9370
      -------------------------------------------------------------
                  HL-Gap            0.1960277 Eh            5.3342 eV
             Fermi-level           -0.0564250 Eh           -1.5354 eV

 SCC (total)                   0 d,  0 h,  0 min,  0.094 sec
 SCC setup                      ...        0 min,  0.003 sec (  3.427%)
 Dispersion                     ...        0 min,  0.007 sec (  7.713%)
 classical contributions        ...        0 min,  0.005 sec (  5.871%)
 integral evaluation            ...        0 min,  0.011 sec ( 11.715%)
 iterations                     ...        0 min,  0.033 sec ( 35.734%)
 molecular gradient             ...        0 min,  0.033 sec ( 35.414%)
 printout                       ...        0 min,  0.000 sec (  0.113%)

         :::::::::::::::::::::::::::::::::::::::::::::::::::::
         ::                     SUMMARY                     ::
         :::::::::::::::::::::::::::::::::::::::::::::::::::::
         :: total energy             -14.166155571007 Eh    ::
         :: gradient norm              0.000795575466 Eh/a0 ::
         :: HOMO-LUMO gap              5.334186344667 eV    ::
         ::.................................................::
         :: SCC energy               -14.283985911746 Eh    ::
         :: -> isotropic ES            0.207451314671 Eh    ::
         :: -> anisotropic ES          0.004047975861 Eh    ::
         :: -> anisotropic XC         -0.001172117671 Eh    ::
         :: -> dispersion             -0.003141365910 Eh    ::
         :: repulsion energy           0.117830044833 Eh    ::
         :: add. restraining           0.000000025070 Eh    ::
         :: total charge              -1.000000000000 e     ::
         :::::::::::::::::::::::::::::::::::::::::::::::::::::

           -------------------------------------------------
          |                Property Printout                |
           -------------------------------------------------

    * Orbital Energies and Occupations

         #    Occupation            Energy/Eh            Energy/eV
      -------------------------------------------------------------
         1        2.0000           -0.4589161             -12.4877
         2        2.0000           -0.4457296             -12.1289
         3        2.0000           -0.4138228             -11.2607
         4        2.0000           -0.3489043              -9.4942
         5        2.0000           -0.3181010              -8.6560
         6        2.0000           -0.3064166              -8.3380
         7        2.0000           -0.3053782              -8.3098
         8        2.0000           -0.2749512              -7.4818
         9        2.0000           -0.2671095              -7.2684
        10        2.0000           -0.1846275              -5.0240
        11        2.0000           -0.1693604              -4.6085
        12        2.0000           -0.1544389              -4.2025 (HOMO)
        13                          0.0415889               1.1317 (LUMO)
        14                          0.2950545               8.0288
        15                          0.3417724               9.3001
        16                          0.3827923              10.4163
        17                          0.3920939              10.6694
        18                          0.6332205              17.2308
        19                          0.8796693              23.9370
      -------------------------------------------------------------
                  HL-Gap            0.1960277 Eh            5.3342 eV
             Fermi-level           -0.0564250 Eh           -1.5354 eV

     #   Z          covCN         q      C6AA      α(0)
     1   6 C        3.742    -0.126    23.002     6.842
     2   6 C        2.678     0.368    20.769     7.458
     3   8 O        0.856    -0.605    26.253     6.870
     4   8 O        0.856    -0.607    26.302     6.876
     5   1 H        0.925    -0.010     3.237     2.813
     6   1 H        0.925    -0.009     3.211     2.802
     7   1 H        0.925    -0.010     3.234     2.812

 Mol. C6AA /au·bohr⁶  :        620.305460
 Mol. C8AA /au·bohr⁸  :      13158.289859
 Mol. α(0) /au        :         36.473569


Wiberg/Mayer (AO) data.
largest (>0.10) Wiberg bond orders for each atom

 ---------------------------------------------------------------------------
     #   Z sym  total        # sym  WBO       # sym  WBO       # sym  WBO
 ---------------------------------------------------------------------------
     1   6 C    3.969 --     6 H    0.993     7 H    0.987     5 H    0.986
                             2 C    0.884
     2   6 C    3.945 --     3 O    1.529     4 O    1.527     1 C    0.884
     3   8 O    1.834 --     2 C    1.529     4 O    0.230
     4   8 O    1.830 --     2 C    1.527     3 O    0.230
     5   1 H    1.000 --     1 C    0.986
     6   1 H    1.000 --     1 C    0.993
     7   1 H    1.000 --     1 C    0.987
 ---------------------------------------------------------------------------

Topologies differ in total number of bonds
Writing topology from bond orders to xtbtopo.mol

molecular dipole:
                 x           y           z       tot (Debye)
 q only:       -0.989      -0.127      -0.032
   full:       -1.332      -0.179      -0.030       3.416
molecular quadrupole (traceless):
                xx          xy          yy          xz          yz          zz
 q only:       -0.346      -0.632       3.436      -0.192       2.332      -3.090
  q+dip:        0.366      -0.625       4.075      -0.284       3.026      -4.441
   full:        0.020      -0.765       4.579      -0.307       3.266      -4.599

           -------------------------------------------------
          |                Geometry Summary                 |
           -------------------------------------------------

      molecular mass/u    :       59.0441039
   center of mass at/Å    :        0.0035894      -0.0070548      -0.0061326
  moments of inertia/u·Å² :        0.4318307E+02   0.5138993E+02   0.9142153E+02
rotational constants/cm⁻¹ :        0.3903760E+00   0.3280338E+00   0.1843945E+00

 * 5 selected distances

     #   Z          #   Z                                           value/Å
     2   6 C        3   8 O                                       1.2393929
     2   6 C        4   8 O                                       1.2396606 (max)
     1   6 C        5   1 H                                       1.0898726
     1   6 C        6   1 H                                       1.0890979 (min)
     1   6 C        7   1 H                                       1.0897569

 * 2 distinct bonds (by element types)

   Z      Z             #   av. dist./Å        max./Å        min./Å
   1 H    6 C           3     1.0895758     1.0898726     1.0890979
   6 C    8 O           2     1.2395268     1.2396606     1.2393929


optimized geometry written to: xtbopt.xyz


           -------------------------------------------------
          | TOTAL ENERGY              -14.166155571007 Eh   |
          | GRADIENT NORM               0.000795575466 Eh/α |
          | HOMO-LUMO GAP               5.334186344667 eV   |
           -------------------------------------------------

------------------------------------------------------------------------
 * finished run on 2022/11/03 at 12:29:20.058     
------------------------------------------------------------------------
 total:
 * wall-time:     0 d,  0 h,  0 min,  1.199 sec
 *  cpu-time:     0 d,  0 h,  0 min,  9.550 sec
 * ratio c/w:     7.963 speedup
 SCF:
 * wall-time:     0 d,  0 h,  0 min,  0.174 sec
 *  cpu-time:     0 d,  0 h,  0 min,  1.385 sec
 * ratio c/w:     7.963 speedup
 ANC optimizer:
 * wall-time:     0 d,  0 h,  0 min,  0.958 sec
 *  cpu-time:     0 d,  0 h,  0 min,  7.632 sec
 * ratio c/w:     7.963 speedup

