7
 energy: -14.166155495277 gnorm: 0.000392024629 xtb: 6.5.1 (b24c23e)
C           -1.43349526885937       -0.21298656835843       -0.05626726766989
C            0.13313810168379        0.01957133921597        0.00479893695443
O            0.50970281270105        1.19560596053043       -0.10131882858047
O            0.81525589961529       -1.00476070313952        0.15421716682946
H           -1.95293317200573        0.73209233316291       -0.20808752038943
H           -1.66518119411563       -0.89516137633141       -0.87393162206956
H           -1.76556918901940       -0.66767698507995        0.87689813492545
