2022-11-03:12:30:01,786 INFO     [psi4.driver.task_planner:266] PLANNING Atomic:  keywords={'FREEZE_CORE': 'TRUE', 'function_kwargs': {}}
2022-11-03:12:30:01,789 INFO     [psi4.driver.driver:499] Compute energy(): method=wb97x-d, basis=6-311+g*, molecule=default, nre=112.142077049783
2022-11-03:12:30:06,929 INFO     [psi4.driver.driver:502] Return energy(): -228.5147647751007
io,
    A. Alenaizan, A. M. James, S. Lehtola, J. P. Misiewicz, M. Scheurer,
    R. A. Shaw, J. B. Schriber, Y. Xie, Z. L. Glick, D. A. Sirianni,
    J. S. O'Brien, J. M. Waldrop, A. Kumar, E. G. Hohenstein,
    B. P. Pritchard, B. R. Brooks, H. F. Schaefer III, A. Yu. Sokolov,
    K. Patkowski, A. E. DePrince III, U. Bozkaya, R. A. King,
    F. A. Evangelista, J. M. Turney, T. D. Crawford, C. D. Sherrill,
    J. Chem. Phys. 152(18) 184108 (2020). https://doi.org/10.1063/5.0006002

                            Additional Code Authors
    E. T. Seidl, C. L. Janssen, E. F. Valeev, M. L. Leininger,
    J. F. Gonthier, R. M. Richard, H. R. McAlexander, M. Saitow, X. Wang,
    P. Verma, M. H. Lechner, and A. Jiang

             Previous Authors, Complete List of Code Contributors,
                       and Citations for Specific Modules
    https://github.com/psi4/psi4/blob/master/codemeta.json
    https://github.com/psi4/psi4/graphs/contributors
    http://psicode.org/psi4manual/master/introduction.html#citing-psifour

    -----------------------------------------------------------------------


    Psi4 started on: Thursday, 03 November 2022 12:30PM

    Process ID: 4245
    Host:       DESKTOP-26BCFJT
    PSIDATADIR: /home/chase/psi4conda/share/psi4
    Memory:     500.0 MiB
    Threads:    1
    
  ==> Input File <==

--------------------------------------------------------------------------
molecule { 
-1 1
 C   -1.435050   -0.204208   -0.044178
 C    0.135579    0.003727    0.000687
 O    0.570411    0.629217    0.978331
 O    0.762017   -0.484862   -0.950998
 H   -1.827123    0.201789   -0.976366
 H   -1.655925   -1.271030   -0.012651
 H   -1.908991    0.292048    0.801483
}
memory 1GB
set_num_threads(2)
psi4_io.set_default_path("/home/chase/temp/Psi4-acet")
set freeze_core True
E, wfn = energy('wb97x-d/6-311+G*',return_wfn=True)
oeprop(wfn,"WIBERG_LOWDIN_INDICES")
clean()
--------------------------------------------------------------------------

  Memory set to 953.674 MiB by Python driver.
  Threads set to 2 by Python driver.

Scratch directory: /home/chase/temp/Psi4-acet/

*** tstart() called on DESKTOP-26BCFJT
*** at Thu Nov  3 12:30:01 2022

   => Loading Basis Set <=

    Name: 6-311+G*
    Role: ORBITAL
    Keyword: BASIS
    atoms 1-2 entry C          line   130 file /home/chase/psi4conda/share/psi4/basis/6-311pgs.gbs 
    atoms 3-4 entry O          line   172 file /home/chase/psi4conda/share/psi4/basis/6-311pgs.gbs 
    atoms 5-7 entry H          line    47 file /home/chase/psi4conda/share/psi4/basis/6-311pgs.gbs 

   => WB97X-D: Empirical Dispersion <=

    Chai and Head-Gordon Dispersion Correction
    Chai, J.-D.; Head-Gordon, M. (2010), J. Chem. Phys., 132: 6615-6620

        s6 =       1.000000


         ---------------------------------------------------------
                                   SCF
               by Justin Turney, Rob Parrish, Andy Simmonett
                          and Daniel G. A. Smith
                              RKS Reference
                        2 Threads,    953 MiB Core
         ---------------------------------------------------------

  ==> Geometry <==

    Molecular point group: c1
    Full point group: C1

    Geometry (in Angstrom), charge = -1, multiplicity = 1:

       Center              X                  Y                   Z               Mass       
    ------------   -----------------  -----------------  -----------------  -----------------
         C           -1.439865663535    -0.189294402630    -0.039539987244    12.000000000000
         C            0.130763336465     0.018640597370     0.005325012756    12.000000000000
         O            0.565595336465     0.644130597370     0.982969012756    15.994914619570
         O            0.757201336465    -0.469948402630    -0.946359987244    15.994914619570
         H           -1.831938663535     0.216702597370    -0.971727987244     1.007825032230
         H           -1.660740663535    -1.256116402630    -0.008012987244     1.007825032230
         H           -1.913806663535     0.306961597370     0.806121012756     1.007825032230

  Running in c1 symmetry.

  Rotational constants: A =      0.39052  B =      0.32813  C =      0.18446 [cm^-1]
  Rotational constants: A =  11707.60759  B =   9837.16546  C =   5529.93876 [MHz]
  Nuclear repulsion =  112.142077049782998

  Charge       = -1
  Multiplicity = 1
  Electrons    = 32
  Nalpha       = 16
  Nbeta        = 16

  ==> Algorithm <==

  SCF Algorithm Type is DF.
  DIIS enabled.
  MOM disabled.
  Fractional occupation disabled.
  Guess Type is SAD.
  Energy threshold   = 1.00e-06
  Density threshold  = 1.00e-06
  Integral threshold = 1.00e-12

  ==> Primary Basis <==

  Basis Set: 6-311+G*
    Blend: 6-311+G*
    Number of shells: 49
    Number of basis functions: 97
    Number of Cartesian functions: 101
    Spherical Harmonics?: true
    Max angular momentum: 2

  ==> DFT Potential <==

   => LibXC <=

    Version 5.1.5
    S. Lehtola, C. Steigemann, M. J. Oliveira, and M. A. Marques, SoftwareX 7, 1 (2018) (10.1016/j.softx.2017.11.002)

   => Composite Functional: WB97X-D <= 

    wB97X-D Hyb-GGA Exchange-Correlation Functional

    J.-D. Chai and M. Head-Gordon, Phys. Chem. Chem. Phys. 10, 6615 (2008) (10.1039/B810189B)

    Deriv               =              1
    GGA                 =           TRUE
    Meta                =          FALSE

    Exchange Hybrid     =           TRUE
    MP2 Hybrid          =          FALSE

   => Exchange-Correlation Functionals <=

    1.0000   wB97X-D range-separated functional

   => Exact (HF) Exchange <=

    0.7780            HF,LR [omega = 0.2000]
    0.2220               HF 

   => LibXC Density Thresholds  <==

    XC_HYB_GGA_XC_WB97X_D:  1.00E-14 

   => Molecular Quadrature <=

    Radial Scheme          =       TREUTLER
    Pruning Scheme         =           NONE
    Nuclear Scheme         =       TREUTLER

    Blocking Scheme        =         OCTREE
    BS radius alpha        =              1
    Pruning alpha          =              1
    Radial Points          =             75
    Spherical Points       =            302
    Total Points           =         152674
    Total Blocks           =           1196
    Max Points             =            256
    Max Functions          =             97
    Weights Tolerance      =       1.00E-15

   => Loading Basis Set <=

    Name: (6-311+G* AUX)
    Role: JKFIT
    Keyword: DF_BASIS_SCF
    atoms 1-2 entry C          line   200 file /home/chase/psi4conda/share/psi4/basis/heavy-aug-cc-pvtz-jkfit.gbs 
    atoms 3-4 entry O          line   324 file /home/chase/psi4conda/share/psi4/basis/heavy-aug-cc-pvtz-jkfit.gbs 
    atoms 5-7 entry H          line   116 file /home/chase/psi4conda/share/psi4/basis/heavy-aug-cc-pvtz-jkfit.gbs 

  ==> Integral Setup <==

  DFHelper Memory: AOs need 0.110 GiB; user supplied 0.345 GiB. Using in-core AOs.

  ==> MemDFJK: Density-Fitted J/K Matrices <==

    J tasked:                   Yes
    K tasked:                   Yes
    wK tasked:                  Yes
    Omega:                2.000E-01
    OpenMP threads:               2
    Memory [MiB]:               353
    Algorithm:                 Core
    Schwarz Cutoff:           1E-12
    Mask sparsity (%):       0.6164
    Fitting Condition:        1E-10

   => Auxiliary Basis Set <=

  Basis Set: (6-311+G* AUX)
    Blend: HEAVY-AUG-CC-PVTZ-JKFIT
    Number of shells: 150
    Number of basis functions: 506
    Number of Cartesian functions: 629
    Spherical Harmonics?: true
    Max angular momentum: 4

  Cached 100.0% of DFT collocation blocks in 0.354 [GiB].

  Minimum eigenvalue in the overlap matrix is 2.2868881785E-04.
  Reciprocal condition number of the overlap matrix is 2.7035645008E-05.
    Using symmetric orthogonalization.

  ==> Pre-Iterations <==

  SCF Guess: Superposition of Atomic Densities via on-the-fly atomic UHF (no occupation information).

   -------------------------
    Irrep   Nso     Nmo    
   -------------------------
     A         97      97 
   -------------------------
    Total      97      97
   -------------------------

  ==> Iterations <==

                           Total Energy        Delta E     RMS |[F,P]|

   @DF-RKS iter SAD:  -227.56721033157402   -2.27567e+02   0.00000e+00 
   @DF-RKS iter   1:  -228.16627908117653   -5.99069e-01   9.50416e-03 DIIS/ADIIS
   @DF-RKS iter   2:  -228.16058736103267    5.69172e-03   1.02730e-02 DIIS/ADIIS
   @DF-RKS iter   3:  -228.50881211637051   -3.48225e-01   1.22988e-03 DIIS/ADIIS
   @DF-RKS iter   4:  -228.51432783098883   -5.51571e-03   2.92766e-04 DIIS/ADIIS
   @DF-RKS iter   5:  -228.51474494713796   -4.17116e-04   4.47973e-05 DIIS
   @DF-RKS iter   6:  -228.51476243265273   -1.74855e-05   2.01866e-05 DIIS
   @DF-RKS iter   7:  -228.51476432620180   -1.89355e-06   7.73559e-06 DIIS
   @DF-RKS iter   8:  -228.51476466530954   -3.39108e-07   4.62053e-06 DIIS
   @DF-RKS iter   9:  -228.51476477510070   -1.09791e-07   6.23112e-07 DIIS
  Energy and wave function converged.


  ==> Post-Iterations <==

   Electrons on quadrature grid:
      Ntotal   =   32.0000106747 ; deviation = 1.067e-05 

    Orbital Energies [Eh]
    ---------------------

    Doubly Occupied:                                                      

       1A    -18.980999     2A    -18.980046     3A    -10.169079  
       4A    -10.094952     5A     -0.929821     6A     -0.839787  
       7A     -0.628866     8A     -0.390453     9A     -0.338934  
      10A     -0.326936    11A     -0.316692    12A     -0.277504  
      13A     -0.256531    14A     -0.132570    15A     -0.118247  
      16A     -0.115134  

    Virtual:                                                              

      17A      0.198134    18A      0.239036    19A      0.241905  
      20A      0.245531    21A      0.273889    22A      0.278675  
      23A      0.281334    24A      0.328808    25A      0.333396  
      26A      0.386265    27A      0.401506    28A      0.429602  
      29A      0.454298    30A      0.474939    31A      0.479307  
      32A      0.479677    33A      0.521039    34A      0.530135  
      35A      0.540820    36A      0.566821    37A      0.576786  
      38A      0.673468    39A      0.695146    40A      0.727880  
      41A      0.768967    42A      0.779359    43A      0.857485  
      44A      0.862666    45A      0.908553    46A      0.945817  
      47A      0.973002    48A      1.031640    49A      1.132759  
      50A      1.151392    51A      1.359461    52A      1.396333  
      53A      1.404327    54A      1.455738    55A      1.470676  
      56A      1.473578    57A      1.490194    58A      1.679743  
      59A      1.714032    60A      1.793287    61A      1.862542  
      62A      1.869916    63A      1.895148    64A      1.950448  
      65A      1.991891    66A      2.195963    67A      2.265909  
      68A      2.283634    69A      2.723456    70A      2.746844  
      71A      2.758428    72A      2.939112    73A      3.156492  
      74A      3.157114    75A      3.161958    76A      3.203873  
      77A      3.259460    78A      3.382616    79A      3.415909  
      80A      3.576153    81A      3.620322    82A      3.699625  
      83A      3.733045    84A      3.843795    85A      3.982064  
      86A      4.281594    87A      4.349008    88A      5.356008  
      89A      5.398521    90A      5.420813    91A      5.507886  
      92A      5.881148    93A      6.197402    94A     23.838464  
      95A     24.207172    96A     50.285227    97A     50.381261  

    Final Occupation by Irrep:
              A 
    DOCC [    16 ]

  @DF-RKS Final Energy:  -228.51476477510070

   => Energetics <=

    Nuclear Repulsion Energy =            112.1420770497829977
    One-Electron Energy =                -541.6602327950499784
    Two-Electron Energy =                 221.3928961820649874
    DFT Exchange-Correlation Energy =     -20.3881971985781902
    Empirical Dispersion Energy =          -0.0013080133205189
    VV10 Nonlocal Energy =                  0.0000000000000000
    Total Energy =                       -228.5147647751007014

Computation Completed


Properties will be evaluated at   0.000000,   0.000000,   0.000000 [a0]

Properties computed using the SCF density matrix


 Multipole Moments:

 ------------------------------------------------------------------------------------
     Multipole            Electronic (a.u.)      Nuclear  (a.u.)        Total (a.u.)
 ------------------------------------------------------------------------------------

 L = 1.  Multiply by 2.5417464519 to convert [e a0] to [Debye]
 Dipole X            :          3.7093383           -5.0620596           -1.3527212
 Dipole Y            :          0.5111133           -0.6858146           -0.1747014
 Dipole Z            :          0.1301896           -0.1625875           -0.0323980
 Magnitude           :                                                    1.3643405

 ------------------------------------------------------------------------------------

*** tstop() called on DESKTOP-26BCFJT at Thu Nov  3 12:30:06 2022
Module time:
	user time   =       9.88 seconds =       0.16 minutes
	system time =       0.22 seconds =       0.00 minutes
	total time  =          5 seconds =       0.08 minutes
Total time:
	user time   =       9.88 seconds =       0.16 minutes
	system time =       0.22 seconds =       0.00 minutes
	total time  =          5 seconds =       0.08 minutes


Properties will be evaluated at   0.000000,   0.000000,   0.000000 [a0]
OEProp: No title given, name of density matrix used for the following properties is 'SCF density'


  Wiberg Bond Indices using Orthogonal Lowdin Orbitals:

  Irrep: 1 Size: 7 x 7

                 1                   2                   3                   4                   5

    1     0.00000000000000     1.04528713785145     0.18015798657129     0.18326361321516     0.91704443244171
    2     1.04528713785145     0.00000000000000     2.12380878754894     2.11956302725543     0.04134413716625
    3     0.18015798657129     2.12380878754894     0.00000000000000     0.29089867552972     0.01078677759910
    4     0.18326361321516     2.11956302725543     0.29089867552972     0.00000000000000     0.01579201573283
    5     0.91704443244171     0.04134413716625     0.01078677759910     0.01579201573283     0.00000000000000
    6     0.91666179980577     0.04166047182302     0.01101384478396     0.01521331477331     0.00862002939702
    7     0.92016386990535     0.03939606212926     0.01983284368194     0.00871321303385     0.00982934495114

                 6                   7

    1     0.91666179980577     0.92016386990535
    2     0.04166047182302     0.03939606212926
    3     0.01101384478396     0.01983284368194
    4     0.01521331477331     0.00871321303385
    5     0.00862002939702     0.00982934495114
    6     0.00000000000000     0.00969848549679
    7     0.00969848549679     0.00000000000000



  Atomic Valences: 

 #  #
 Irrep: 1
      1:    4.162578839790727
      2:    5.411059623774356
      3:    2.636498915714945
      4:    2.633443859540296
      5:    1.003416737288050
      6:    1.002867946079866
      7:    1.007633819198327


    Psi4 stopped on: Thursday, 03 November 2022 12:30PM
    Psi4 wall time for execution: 0:00:05.20

*** Psi4 exiting successfully. Buy a developer a beer!
