2022-11-03:12:30:01,932 INFO     [psi4.driver.task_planner:266] PLANNING Atomic:  keywords={'FREEZE_CORE': 'TRUE', 'function_kwargs': {}}
2022-11-03:12:30:01,938 INFO     [psi4.driver.driver:499] Compute energy(): method=wb97x-d, basis=6-311+g*, molecule=default, nre=112.14519371811879
2022-11-03:12:30:07,777 INFO     [psi4.driver.driver:502] Return energy(): -228.51476890319316

    A. Alenaizan, A. M. James, S. Lehtola, J. P. Misiewicz, M. Scheurer,
    R. A. Shaw, J. B. Schriber, Y. Xie, Z. L. Glick, D. A. Sirianni,
    J. S. O'Brien, J. M. Waldrop, A. Kumar, E. G. Hohenstein,
    B. P. Pritchard, B. R. Brooks, H. F. Schaefer III, A. Yu. Sokolov,
    K. Patkowski, A. E. DePrince III, U. Bozkaya, R. A. King,
    F. A. Evangelista, J. M. Turney, T. D. Crawford, C. D. Sherrill,
    J. Chem. Phys. 152(18) 184108 (2020). https://doi.org/10.1063/5.0006002

                            Additional Code Authors
    E. T. Seidl, C. L. Janssen, E. F. Valeev, M. L. Leininger,
    J. F. Gonthier, R. M. Richard, H. R. McAlexander, M. Saitow, X. Wang,
    P. Verma, M. H. Lechner, and A. Jiang

             Previous Authors, Complete List of Code Contributors,
                       and Citations for Specific Modules
    https://github.com/psi4/psi4/blob/master/codemeta.json
    https://github.com/psi4/psi4/graphs/contributors
    http://psicode.org/psi4manual/master/introduction.html#citing-psifour

    -----------------------------------------------------------------------


    Psi4 started on: Thursday, 03 November 2022 12:30PM

    Process ID: 4249
    Host:       DESKTOP-26BCFJT
    PSIDATADIR: /home/chase/psi4conda/share/psi4
    Memory:     500.0 MiB
    Threads:    1
    
  ==> Input File <==

--------------------------------------------------------------------------
molecule { 
-1 1
 C   -1.435947   -0.194447   -0.053635
 C    0.136210   -0.000996   -0.001486
 O    0.597735    0.331221    1.099922
 O    0.737532   -0.213222   -1.064398
 H   -1.805692   -0.008297   -1.060988
 H   -1.667945   -1.223577    0.222385
 H   -1.920973    0.476001    0.654508
}
memory 1GB
set_num_threads(2)
psi4_io.set_default_path("/home/chase/temp/Psi4-acet")
set freeze_core True
E, wfn = energy('wb97x-d/6-311+G*',return_wfn=True)
oeprop(wfn,"WIBERG_LOWDIN_INDICES")
clean()
--------------------------------------------------------------------------

  Memory set to 953.674 MiB by Python driver.
  Threads set to 2 by Python driver.

Scratch directory: /home/chase/temp/Psi4-acet/

*** tstart() called on DESKTOP-26BCFJT
*** at Thu Nov  3 12:30:01 2022

   => Loading Basis Set <=

    Name: 6-311+G*
    Role: ORBITAL
    Keyword: BASIS
    atoms 1-2 entry C          line   130 file /home/chase/psi4conda/share/psi4/basis/6-311pgs.gbs 
    atoms 3-4 entry O          line   172 file /home/chase/psi4conda/share/psi4/basis/6-311pgs.gbs 
    atoms 5-7 entry H          line    47 file /home/chase/psi4conda/share/psi4/basis/6-311pgs.gbs 

   => WB97X-D: Empirical Dispersion <=

    Chai and Head-Gordon Dispersion Correction
    Chai, J.-D.; Head-Gordon, M. (2010), J. Chem. Phys., 132: 6615-6620

        s6 =       1.000000


         ---------------------------------------------------------
                                   SCF
               by Justin Turney, Rob Parrish, Andy Simmonett
                          and Daniel G. A. Smith
                              RKS Reference
                        2 Threads,    953 MiB Core
         ---------------------------------------------------------

  ==> Geometry <==

    Molecular point group: c1
    Full point group: C1

    Geometry (in Angstrom), charge = -1, multiplicity = 1:

       Center              X                  Y                   Z               Mass       
    ------------   -----------------  -----------------  -----------------  -----------------
         C           -1.441434146769    -0.173778443746    -0.048910909297    12.000000000000
         C            0.130722853231     0.019672556254     0.003238090703    12.000000000000
         O            0.592247853231     0.351889556254     1.104646090703    15.994914619570
         O            0.732044853231    -0.192553443746    -1.059673909297    15.994914619570
         H           -1.811179146769     0.012371556254    -1.056263909297     1.007825032230
         H           -1.673432146769    -1.202908443746     0.227109090703     1.007825032230
         H           -1.926460146769     0.496669556254     0.659232090703     1.007825032230

  Running in c1 symmetry.

  Rotational constants: A =      0.39048  B =      0.32822  C =      0.18447 [cm^-1]
  Rotational constants: A =  11706.28963  B =   9839.79836  C =   5530.32153 [MHz]
  Nuclear repulsion =  112.145193718118790

  Charge       = -1
  Multiplicity = 1
  Electrons    = 32
  Nalpha       = 16
  Nbeta        = 16

  ==> Algorithm <==

  SCF Algorithm Type is DF.
  DIIS enabled.
  MOM disabled.
  Fractional occupation disabled.
  Guess Type is SAD.
  Energy threshold   = 1.00e-06
  Density threshold  = 1.00e-06
  Integral threshold = 1.00e-12

  ==> Primary Basis <==

  Basis Set: 6-311+G*
    Blend: 6-311+G*
    Number of shells: 49
    Number of basis functions: 97
    Number of Cartesian functions: 101
    Spherical Harmonics?: true
    Max angular momentum: 2

  ==> DFT Potential <==

   => LibXC <=

    Version 5.1.5
    S. Lehtola, C. Steigemann, M. J. Oliveira, and M. A. Marques, SoftwareX 7, 1 (2018) (10.1016/j.softx.2017.11.002)

   => Composite Functional: WB97X-D <= 

    wB97X-D Hyb-GGA Exchange-Correlation Functional

    J.-D. Chai and M. Head-Gordon, Phys. Chem. Chem. Phys. 10, 6615 (2008) (10.1039/B810189B)

    Deriv               =              1
    GGA                 =           TRUE
    Meta                =          FALSE

    Exchange Hybrid     =           TRUE
    MP2 Hybrid          =          FALSE

   => Exchange-Correlation Functionals <=

    1.0000   wB97X-D range-separated functional

   => Exact (HF) Exchange <=

    0.7780            HF,LR [omega = 0.2000]
    0.2220               HF 

   => LibXC Density Thresholds  <==

    XC_HYB_GGA_XC_WB97X_D:  1.00E-14 

   => Molecular Quadrature <=

    Radial Scheme          =       TREUTLER
    Pruning Scheme         =           NONE
    Nuclear Scheme         =       TREUTLER

    Blocking Scheme        =         OCTREE
    BS radius alpha        =              1
    Pruning alpha          =              1
    Radial Points          =             75
    Spherical Points       =            302
    Total Points           =         152679
    Total Blocks           =           1192
    Max Points             =            256
    Max Functions          =             97
    Weights Tolerance      =       1.00E-15

   => Loading Basis Set <=

    Name: (6-311+G* AUX)
    Role: JKFIT
    Keyword: DF_BASIS_SCF
    atoms 1-2 entry C          line   200 file /home/chase/psi4conda/share/psi4/basis/heavy-aug-cc-pvtz-jkfit.gbs 
    atoms 3-4 entry O          line   324 file /home/chase/psi4conda/share/psi4/basis/heavy-aug-cc-pvtz-jkfit.gbs 
    atoms 5-7 entry H          line   116 file /home/chase/psi4conda/share/psi4/basis/heavy-aug-cc-pvtz-jkfit.gbs 

  ==> Integral Setup <==

  DFHelper Memory: AOs need 0.110 GiB; user supplied 0.342 GiB. Using in-core AOs.

  ==> MemDFJK: Density-Fitted J/K Matrices <==

    J tasked:                   Yes
    K tasked:                   Yes
    wK tasked:                  Yes
    Omega:                2.000E-01
    OpenMP threads:               2
    Memory [MiB]:               350
    Algorithm:                 Core
    Schwarz Cutoff:           1E-12
    Mask sparsity (%):       0.6377
    Fitting Condition:        1E-10

   => Auxiliary Basis Set <=

  Basis Set: (6-311+G* AUX)
    Blend: HEAVY-AUG-CC-PVTZ-JKFIT
    Number of shells: 150
    Number of basis functions: 506
    Number of Cartesian functions: 629
    Spherical Harmonics?: true
    Max angular momentum: 4

  Cached 100.0% of DFT collocation blocks in 0.356 [GiB].

  Minimum eigenvalue in the overlap matrix is 2.2924013192E-04.
  Reciprocal condition number of the overlap matrix is 2.7099647924E-05.
    Using symmetric orthogonalization.

  ==> Pre-Iterations <==

  SCF Guess: Superposition of Atomic Densities via on-the-fly atomic UHF (no occupation information).

   -------------------------
    Irrep   Nso     Nmo    
   -------------------------
     A         97      97 
   -------------------------
    Total      97      97
   -------------------------

  ==> Iterations <==

                           Total Energy        Delta E     RMS |[F,P]|

   @DF-RKS iter SAD:  -227.56738737456300   -2.27567e+02   0.00000e+00 
   @DF-RKS iter   1:  -228.16626478604874   -5.98877e-01   9.50434e-03 DIIS/ADIIS
   @DF-RKS iter   2:  -228.16068799891795    5.57679e-03   1.02719e-02 DIIS/ADIIS
   @DF-RKS iter   3:  -228.50882298704298   -3.48135e-01   1.22920e-03 DIIS/ADIIS
   @DF-RKS iter   4:  -228.51433243984729   -5.50945e-03   2.92633e-04 DIIS/ADIIS
   @DF-RKS iter   5:  -228.51474925113183   -4.16811e-04   4.41987e-05 DIIS
   @DF-RKS iter   6:  -228.51476701704090   -1.77659e-05   1.63487e-05 DIIS
   @DF-RKS iter   7:  -228.51476862317702   -1.60614e-06   3.78597e-06 DIIS
   @DF-RKS iter   8:  -228.51476888330529   -2.60128e-07   1.37746e-06 DIIS
   @DF-RKS iter   9:  -228.51476889651067   -1.32054e-08   1.22623e-06 DIIS
   @DF-RKS iter  10:  -228.51476890319316   -6.68248e-09   1.31947e-07 DIIS
  Energy and wave function converged.


  ==> Post-Iterations <==

   Electrons on quadrature grid:
      Ntotal   =   32.0000090951 ; deviation = 9.095e-06 

    Orbital Energies [Eh]
    ---------------------

    Doubly Occupied:                                                      

       1A    -18.980545     2A    -18.980457     3A    -10.169075  
       4A    -10.094947     5A     -0.929817     6A     -0.839782  
       7A     -0.628892     8A     -0.390451     9A     -0.338913  
      10A     -0.326926    11A     -0.316728    12A     -0.277582  
      13A     -0.256437    14A     -0.132601    15A     -0.118205  
      16A     -0.115110  

    Virtual:                                                              

      17A      0.198133    18A      0.239563    19A      0.241214  
      20A      0.245536    21A      0.274050    22A      0.278352  
      23A      0.281489    24A      0.327516    25A      0.335880  
      26A      0.385654    27A      0.399345    28A      0.432173  
      29A      0.455789    30A      0.471435    31A      0.479744  
      32A      0.480354    33A      0.519897    34A      0.528523  
      35A      0.542519    36A      0.568360    37A      0.576404  
      38A      0.670565    39A      0.702243    40A      0.738919  
      41A      0.742486    42A      0.778665    43A      0.862393  
      44A      0.864563    45A      0.913770    46A      0.943181  
      47A      0.971724    48A      1.031363    49A      1.131808  
      50A      1.151334    51A      1.359874    52A      1.380235  
      53A      1.425777    54A      1.455047    55A      1.470327  
      56A      1.473892    57A      1.488540    58A      1.662122  
      59A      1.734961    60A      1.789645    61A      1.843856  
      62A      1.890196    63A      1.892037    64A      1.941187  
      65A      1.993398    66A      2.195199    67A      2.268721  
      68A      2.277560    69A      2.734541    70A      2.736924  
      71A      2.756895    72A      2.941112    73A      3.156153  
      74A      3.157031    75A      3.161978    76A      3.204553  
      77A      3.260222    78A      3.369124    79A      3.435234  
      80A      3.575015    81A      3.620604    82A      3.689316  
      83A      3.734951    84A      3.844343    85A      3.981971  
      86A      4.282826    87A      4.343097    88A      5.355782  
      89A      5.398651    90A      5.419656    91A      5.508324  
      92A      5.881804    93A      6.197037    94A     23.837611  
      95A     24.207181    96A     50.285334    97A     50.380564  

    Final Occupation by Irrep:
              A 
    DOCC [    16 ]

  @DF-RKS Final Energy:  -228.51476890319316

   => Energetics <=

    Nuclear Repulsion Energy =            112.1451937181187901
    One-Electron Energy =                -541.6664811452430968
    Two-Electron Energy =                 221.3960667935558604
    DFT Exchange-Correlation Energy =     -20.3882396432630273
    Empirical Dispersion Energy =          -0.0013086263616483
    VV10 Nonlocal Energy =                  0.0000000000000000
    Total Energy =                       -228.5147689031931293

Computation Completed


Properties will be evaluated at   0.000000,   0.000000,   0.000000 [a0]

Properties computed using the SCF density matrix


 Multipole Moments:

 ------------------------------------------------------------------------------------
     Multipole            Electronic (a.u.)      Nuclear  (a.u.)        Total (a.u.)
 ------------------------------------------------------------------------------------

 L = 1.  Multiply by 2.5417464519 to convert [e a0] to [Debye]
 Dipole X            :          3.7118622           -5.0663511           -1.3544889
 Dipole Y            :          0.4895241           -0.6497138           -0.1601897
 Dipole Z            :          0.1118587           -0.1590813           -0.0472226
 Magnitude           :                                                    1.3647457

 ------------------------------------------------------------------------------------

*** tstop() called on DESKTOP-26BCFJT at Thu Nov  3 12:30:07 2022
Module time:
	user time   =      11.12 seconds =       0.19 minutes
	system time =       0.33 seconds =       0.01 minutes
	total time  =          6 seconds =       0.10 minutes
Total time:
	user time   =      11.12 seconds =       0.19 minutes
	system time =       0.33 seconds =       0.01 minutes
	total time  =          6 seconds =       0.10 minutes


Properties will be evaluated at   0.000000,   0.000000,   0.000000 [a0]
OEProp: No title given, name of density matrix used for the following properties is 'SCF density'


  Wiberg Bond Indices using Orthogonal Lowdin Orbitals:

  Irrep: 1 Size: 7 x 7

                 1                   2                   3                   4                   5

    1     0.00000000000000     1.04542805247986     0.18184112575701     0.18155770211756     0.91920885507732
    2     1.04542805247986     0.00000000000000     2.12141022255543     2.12179236566241     0.03988790632743
    3     0.18184112575701     2.12141022255543     0.00000000000000     0.29086175772398     0.00948492098928
    4     0.18155770211756     2.12179236566241     0.29086175772398     0.00000000000000     0.01862767343669
    5     0.91920885507732     0.03988790632743     0.00948492098928     0.01862767343669     0.00000000000000
    6     0.91553188949050     0.04260382841470     0.01273385100442     0.01247408597378     0.00902226061747
    7     0.91899261186027     0.04001106464615     0.01835845600842     0.00963756505412     0.01017652106339

                 6                   7

    1     0.91553188949050     0.91899261186027
    2     0.04260382841470     0.04001106464615
    3     0.01273385100442     0.01835845600842
    4     0.01247408597378     0.00963756505412
    5     0.00902226061747     0.01017652106339
    6     0.00000000000000     0.00894744349443
    7     0.00894744349443     0.00000000000000



  Atomic Valences: 

 #  #
 Irrep: 1
      1:    4.162560236782518
      2:    5.411133440085982
      3:    2.634690334038544
      4:    2.634951149968538
      5:    1.006408137511561
      6:    1.001313358995299
      7:    1.006123662126779


    Psi4 stopped on: Thursday, 03 November 2022 12:30PM
    Psi4 wall time for execution: 0:00:05.91

*** Psi4 exiting successfully. Buy a developer a beer!
