2022-11-03:12:30:09,480 INFO     [psi4.driver.task_planner:266] PLANNING Atomic:  keywords={'FREEZE_CORE': 'TRUE', 'function_kwargs': {}}
2022-11-03:12:30:09,486 INFO     [psi4.driver.driver:499] Compute energy(): method=wb97x-d, basis=6-311+g*, molecule=default, nre=112.14194775704247
2022-11-03:12:30:20,397 INFO     [psi4.driver.driver:502] Return energy(): -228.51476228128678

    A. Alenaizan, A. M. James, S. Lehtola, J. P. Misiewicz, M. Scheurer,
    R. A. Shaw, J. B. Schriber, Y. Xie, Z. L. Glick, D. A. Sirianni,
    J. S. O'Brien, J. M. Waldrop, A. Kumar, E. G. Hohenstein,
    B. P. Pritchard, B. R. Brooks, H. F. Schaefer III, A. Yu. Sokolov,
    K. Patkowski, A. E. DePrince III, U. Bozkaya, R. A. King,
    F. A. Evangelista, J. M. Turney, T. D. Crawford, C. D. Sherrill,
    J. Chem. Phys. 152(18) 184108 (2020). https://doi.org/10.1063/5.0006002

                            Additional Code Authors
    E. T. Seidl, C. L. Janssen, E. F. Valeev, M. L. Leininger,
    J. F. Gonthier, R. M. Richard, H. R. McAlexander, M. Saitow, X. Wang,
    P. Verma, M. H. Lechner, and A. Jiang

             Previous Authors, Complete List of Code Contributors,
                       and Citations for Specific Modules
    https://github.com/psi4/psi4/blob/master/codemeta.json
    https://github.com/psi4/psi4/graphs/contributors
    http://psicode.org/psi4manual/master/introduction.html#citing-psifour

    -----------------------------------------------------------------------


    Psi4 started on: Thursday, 03 November 2022 12:30PM

    Process ID: 4255
    Host:       DESKTOP-26BCFJT
    PSIDATADIR: /home/chase/psi4conda/share/psi4
    Memory:     500.0 MiB
    Threads:    1
    
  ==> Input File <==

--------------------------------------------------------------------------
molecule { 
-1 1
 C   -1.434815   -0.202688   -0.057165
 C    0.137069   -0.006601   -0.003545
 O    0.629644    0.014980    1.133886
 O    0.705828    0.103836   -1.099184
 H   -1.779850   -0.230769   -1.089747
 H   -1.699517   -1.133445    0.444092
 H   -1.917438    0.621368    0.467970
}
memory 1GB
set_num_threads(2)
psi4_io.set_default_path("/home/chase/temp/Psi4-acet")
set freeze_core True
E, wfn = energy('wb97x-d/6-311+G*',return_wfn=True)
oeprop(wfn,"WIBERG_LOWDIN_INDICES")
clean()
--------------------------------------------------------------------------

  Memory set to 953.674 MiB by Python driver.
  Threads set to 2 by Python driver.

Scratch directory: /home/chase/temp/Psi4-acet/

*** tstart() called on DESKTOP-26BCFJT
*** at Thu Nov  3 12:30:09 2022

   => Loading Basis Set <=

    Name: 6-311+G*
    Role: ORBITAL
    Keyword: BASIS
    atoms 1-2 entry C          line   130 file /home/chase/psi4conda/share/psi4/basis/6-311pgs.gbs 
    atoms 3-4 entry O          line   172 file /home/chase/psi4conda/share/psi4/basis/6-311pgs.gbs 
    atoms 5-7 entry H          line    47 file /home/chase/psi4conda/share/psi4/basis/6-311pgs.gbs 

   => WB97X-D: Empirical Dispersion <=

    Chai and Head-Gordon Dispersion Correction
    Chai, J.-D.; Head-Gordon, M. (2010), J. Chem. Phys., 132: 6615-6620

        s6 =       1.000000


         ---------------------------------------------------------
                                   SCF
               by Justin Turney, Rob Parrish, Andy Simmonett
                          and Daniel G. A. Smith
                              RKS Reference
                        2 Threads,    953 MiB Core
         ---------------------------------------------------------

  ==> Geometry <==

    Molecular point group: c1
    Full point group: C1

    Geometry (in Angstrom), charge = -1, multiplicity = 1:

       Center              X                  Y                   Z               Mass       
    ------------   -----------------  -----------------  -----------------  -----------------
         C           -1.440725081594    -0.179647856193    -0.051191095171    12.000000000000
         C            0.131158918406     0.016439143807     0.002428904829    12.000000000000
         O            0.623733918406     0.038020143807     1.139859904829    15.994914619570
         O            0.699917918406     0.126876143807    -1.093210095171    15.994914619570
         H           -1.785760081594    -0.207728856193    -1.083773095171     1.007825032230
         H           -1.705427081594    -1.110404856193     0.450065904829     1.007825032230
         H           -1.923348081594     0.644408143807     0.473943904829     1.007825032230

  Running in c1 symmetry.

  Rotational constants: A =      0.39052  B =      0.32814  C =      0.18446 [cm^-1]
  Rotational constants: A =  11707.39817  B =   9837.25461  C =   5529.93929 [MHz]
  Nuclear repulsion =  112.141947757042473

  Charge       = -1
  Multiplicity = 1
  Electrons    = 32
  Nalpha       = 16
  Nbeta        = 16

  ==> Algorithm <==

  SCF Algorithm Type is DF.
  DIIS enabled.
  MOM disabled.
  Fractional occupation disabled.
  Guess Type is SAD.
  Energy threshold   = 1.00e-06
  Density threshold  = 1.00e-06
  Integral threshold = 1.00e-12

  ==> Primary Basis <==

  Basis Set: 6-311+G*
    Blend: 6-311+G*
    Number of shells: 49
    Number of basis functions: 97
    Number of Cartesian functions: 101
    Spherical Harmonics?: true
    Max angular momentum: 2

  ==> DFT Potential <==

   => LibXC <=

    Version 5.1.5
    S. Lehtola, C. Steigemann, M. J. Oliveira, and M. A. Marques, SoftwareX 7, 1 (2018) (10.1016/j.softx.2017.11.002)

   => Composite Functional: WB97X-D <= 

    wB97X-D Hyb-GGA Exchange-Correlation Functional

    J.-D. Chai and M. Head-Gordon, Phys. Chem. Chem. Phys. 10, 6615 (2008) (10.1039/B810189B)

    Deriv               =              1
    GGA                 =           TRUE
    Meta                =          FALSE

    Exchange Hybrid     =           TRUE
    MP2 Hybrid          =          FALSE

   => Exchange-Correlation Functionals <=

    1.0000   wB97X-D range-separated functional

   => Exact (HF) Exchange <=

    0.7780            HF,LR [omega = 0.2000]
    0.2220               HF 

   => LibXC Density Thresholds  <==

    XC_HYB_GGA_XC_WB97X_D:  1.00E-14 

   => Molecular Quadrature <=

    Radial Scheme          =       TREUTLER
    Pruning Scheme         =           NONE
    Nuclear Scheme         =       TREUTLER

    Blocking Scheme        =         OCTREE
    BS radius alpha        =              1
    Pruning alpha          =              1
    Radial Points          =             75
    Spherical Points       =            302
    Total Points           =         152694
    Total Blocks           =           1199
    Max Points             =            256
    Max Functions          =             97
    Weights Tolerance      =       1.00E-15

   => Loading Basis Set <=

    Name: (6-311+G* AUX)
    Role: JKFIT
    Keyword: DF_BASIS_SCF
    atoms 1-2 entry C          line   200 file /home/chase/psi4conda/share/psi4/basis/heavy-aug-cc-pvtz-jkfit.gbs 
    atoms 3-4 entry O          line   324 file /home/chase/psi4conda/share/psi4/basis/heavy-aug-cc-pvtz-jkfit.gbs 
    atoms 5-7 entry H          line   116 file /home/chase/psi4conda/share/psi4/basis/heavy-aug-cc-pvtz-jkfit.gbs 

  ==> Integral Setup <==

  DFHelper Memory: AOs need 0.110 GiB; user supplied 0.344 GiB. Using in-core AOs.

  ==> MemDFJK: Density-Fitted J/K Matrices <==

    J tasked:                   Yes
    K tasked:                   Yes
    wK tasked:                  Yes
    Omega:                2.000E-01
    OpenMP threads:               2
    Memory [MiB]:               352
    Algorithm:                 Core
    Schwarz Cutoff:           1E-12
    Mask sparsity (%):       0.5952
    Fitting Condition:        1E-10

   => Auxiliary Basis Set <=

  Basis Set: (6-311+G* AUX)
    Blend: HEAVY-AUG-CC-PVTZ-JKFIT
    Number of shells: 150
    Number of basis functions: 506
    Number of Cartesian functions: 629
    Spherical Harmonics?: true
    Max angular momentum: 4

  Cached 100.0% of DFT collocation blocks in 0.354 [GiB].

  Minimum eigenvalue in the overlap matrix is 2.2869040016E-04.
  Reciprocal condition number of the overlap matrix is 2.7035838155E-05.
    Using symmetric orthogonalization.

  ==> Pre-Iterations <==

  SCF Guess: Superposition of Atomic Densities via on-the-fly atomic UHF (no occupation information).

   -------------------------
    Irrep   Nso     Nmo    
   -------------------------
     A         97      97 
   -------------------------
    Total      97      97
   -------------------------

  ==> Iterations <==

                           Total Energy        Delta E     RMS |[F,P]|

   @DF-RKS iter SAD:  -227.56720304190631   -2.27567e+02   0.00000e+00 
   @DF-RKS iter   1:  -228.16627867722480   -5.99076e-01   9.50412e-03 DIIS/ADIIS
   @DF-RKS iter   2:  -228.16059213662780    5.68654e-03   1.02729e-02 DIIS/ADIIS
   @DF-RKS iter   3:  -228.50880978187689   -3.48218e-01   1.22986e-03 DIIS/ADIIS
   @DF-RKS iter   4:  -228.51432533702976   -5.51556e-03   2.92768e-04 DIIS/ADIIS
   @DF-RKS iter   5:  -228.51474245152008   -4.17114e-04   4.48070e-05 DIIS
   @DF-RKS iter   6:  -228.51475992950424   -1.74780e-05   2.02572e-05 DIIS
   @DF-RKS iter   7:  -228.51476183012196   -1.90062e-06   7.77035e-06 DIIS
   @DF-RKS iter   8:  -228.51476217144076   -3.41319e-07   4.61112e-06 DIIS
   @DF-RKS iter   9:  -228.51476228128678   -1.09846e-07   6.22354e-07 DIIS
  Energy and wave function converged.


  ==> Post-Iterations <==

   Electrons on quadrature grid:
      Ntotal   =   32.0000123964 ; deviation = 1.240e-05 

    Orbital Energies [Eh]
    ---------------------

    Doubly Occupied:                                                      

       1A    -18.981006     2A    -18.980045     3A    -10.169081  
       4A    -10.094952     5A     -0.929821     6A     -0.839791  
       7A     -0.628862     8A     -0.390452     9A     -0.338940  
      10A     -0.326927    11A     -0.316691    12A     -0.277502  
      13A     -0.256536    14A     -0.132572    15A     -0.118245  
      16A     -0.115138  

    Virtual:                                                              

      17A      0.198135    18A      0.239032    19A      0.241912  
      20A      0.245530    21A      0.273886    22A      0.278680  
      23A      0.281331    24A      0.328839    25A      0.333349  
      26A      0.386264    27A      0.401551    28A      0.429561  
      29A      0.454276    30A      0.474999    31A      0.479303  
      32A      0.479656    33A      0.521054    34A      0.530166  
      35A      0.540784    36A      0.566798    37A      0.576789  
      38A      0.673535    39A      0.695019    40A      0.727838  
      41A      0.769242    42A      0.779383    43A      0.857382  
      44A      0.862658    45A      0.908468    46A      0.945855  
      47A      0.973018    48A      1.031644    49A      1.132775  
      50A      1.151394    51A      1.359452    52A      1.397411  
      53A      1.403163    54A      1.455741    55A      1.470638  
      56A      1.473612    57A      1.490228    58A      1.680165  
      59A      1.713590    60A      1.793319    61A      1.863714  
      62A      1.868743    63A      1.895168    64A      1.950599  
      65A      1.991859    66A      2.195971    67A      2.265869  
      68A      2.283723    69A      2.723346    70A      2.746933  
      71A      2.758452    72A      2.939080    73A      3.156494  
      74A      3.157113    75A      3.161955    76A      3.203867  
      77A      3.259443    78A      3.382927    79A      3.415514  
      80A      3.576166    81A      3.620303    82A      3.699820  
      83A      3.733009    84A      3.843763    85A      3.982059  
      86A      4.281580    87A      4.349091    88A      5.356011  
      89A      5.398516    90A      5.420833    91A      5.507867  
      92A      5.881143    93A      6.197404    94A     23.838475  
      95A     24.207178    96A     50.285228    97A     50.381263  

    Final Occupation by Irrep:
              A 
    DOCC [    16 ]

  @DF-RKS Final Energy:  -228.51476228128678

   => Energetics <=

    Nuclear Repulsion Energy =            112.1419477570424732
    One-Electron Energy =                -541.6599482402127705
    Two-Electron Energy =                 221.3927372563669280
    DFT Exchange-Correlation Energy =     -20.3881910425597397
    Empirical Dispersion Energy =          -0.0013080119236758
    VV10 Nonlocal Energy =                  0.0000000000000000
    Total Energy =                       -228.5147622812867496

Computation Completed


Properties will be evaluated at   0.000000,   0.000000,   0.000000 [a0]

Properties computed using the SCF density matrix


 Multipole Moments:

 ------------------------------------------------------------------------------------
     Multipole            Electronic (a.u.)      Nuclear  (a.u.)        Total (a.u.)
 ------------------------------------------------------------------------------------

 L = 1.  Multiply by 2.5417464519 to convert [e a0] to [Debye]
 Dipole X            :          3.7168399           -5.0696014           -1.3527615
 Dipole Y            :          0.4623372           -0.6308048           -0.1684676
 Dipole Z            :          0.0957573           -0.1495491           -0.0537918
 Magnitude           :                                                    1.3642722

 ------------------------------------------------------------------------------------

*** tstop() called on DESKTOP-26BCFJT at Thu Nov  3 12:30:20 2022
Module time:
	user time   =      20.03 seconds =       0.33 minutes
	system time =       0.89 seconds =       0.01 minutes
	total time  =         11 seconds =       0.18 minutes
Total time:
	user time   =      20.03 seconds =       0.33 minutes
	system time =       0.89 seconds =       0.01 minutes
	total time  =         11 seconds =       0.18 minutes


Properties will be evaluated at   0.000000,   0.000000,   0.000000 [a0]
OEProp: No title given, name of density matrix used for the following properties is 'SCF density'


  Wiberg Bond Indices using Orthogonal Lowdin Orbitals:

  Irrep: 1 Size: 7 x 7

                 1                   2                   3                   4                   5

    1     0.00000000000000     1.04528029003222     0.18327722724870     0.18014902044541     0.92017099556254
    2     1.04528029003222     0.00000000000000     2.11955968179677     2.12382464376250     0.03939160233023
    3     0.18327722724870     2.11955968179677     0.00000000000000     0.29089443711609     0.00870694524540
    4     0.18014902044541     2.12382464376250     0.29089443711609     0.00000000000000     0.01984346429842
    5     0.92017099556254     0.03939160233023     0.00870694524540     0.01984346429842     0.00000000000000
    6     0.91693817573419     0.04142669306319     0.01563962633205     0.01084742252799     0.00979522387860
    7     0.91676646352582     0.04157890177689     0.01536529487914     0.01095059402368     0.00973518013264

                 6                   7

    1     0.91693817573419     0.91676646352582
    2     0.04142669306319     0.04157890177689
    3     0.01563962633205     0.01536529487914
    4     0.01084742252799     0.01095059402368
    5     0.00979522387860     0.00973518013264
    6     0.00000000000000     0.00861737740183
    7     0.00861737740183     0.00000000000000



  Atomic Valences: 

 #  #
 Irrep: 1
      1:    4.162582172548887
      2:    5.411061812761807
      3:    2.633443212618153
      4:    2.636509582174093
      5:    1.007643411447835
      6:    1.003264518937866
      7:    1.003013811739995


    Psi4 stopped on: Thursday, 03 November 2022 12:30PM
    Psi4 wall time for execution: 0:00:11.03

*** Psi4 exiting successfully. Buy a developer a beer!
