7
 energy: -14.166155652701 gnorm: 0.000386881170 xtb: 6.5.1 (b24c23e)
C           -1.43504995429675       -0.20420750985989       -0.04417837639754
C            0.13557888636837        0.00372710056180        0.00068709160054
O            0.57041091017576        0.62921732124783        0.97833124401167
O            0.76201708830438       -0.48486231305213       -0.95099793276733
H           -1.82712251560208        0.20178945139001       -0.97636615201287
H           -1.65592474134289       -1.27103030169658       -0.01265145992713
H           -1.90899066360679        0.29204826140897        0.80148257549266
