7
 energy: -14.166155571007 gnorm: 0.000795575466 xtb: 6.5.1 (b24c23e)
C           -1.43298682438397       -0.21491856095048       -0.05692463854383
C            0.13461946625012        0.01196628904639       -0.00379010806034
O            0.65606234427037        0.42873989201916       -1.04805620086284
O            0.67130887420601       -0.25154350183093        1.08215885801455
H           -1.91445136675355        0.43476223153081        0.67377976678868
H           -1.81615735096774        0.00731255917034       -1.05187578907329
H           -1.65747714262123       -1.24963591898529        0.20101710173706
