2022-11-03:12:30:01,814 INFO     [psi4.driver.task_planner:266] PLANNING Atomic:  keywords={'FREEZE_CORE': 'TRUE', 'function_kwargs': {}}
2022-11-03:12:30:01,819 INFO     [psi4.driver.driver:499] Compute energy(): method=wb97x-d, basis=6-311+g*, molecule=default, nre=112.12645308211039
2022-11-03:12:30:07,438 INFO     [psi4.driver.driver:502] Return energy(): -228.51475771617393

    A. Alenaizan, A. M. James, S. Lehtola, J. P. Misiewicz, M. Scheurer,
    R. A. Shaw, J. B. Schriber, Y. Xie, Z. L. Glick, D. A. Sirianni,
    J. S. O'Brien, J. M. Waldrop, A. Kumar, E. G. Hohenstein,
    B. P. Pritchard, B. R. Brooks, H. F. Schaefer III, A. Yu. Sokolov,
    K. Patkowski, A. E. DePrince III, U. Bozkaya, R. A. King,
    F. A. Evangelista, J. M. Turney, T. D. Crawford, C. D. Sherrill,
    J. Chem. Phys. 152(18) 184108 (2020). https://doi.org/10.1063/5.0006002

                            Additional Code Authors
    E. T. Seidl, C. L. Janssen, E. F. Valeev, M. L. Leininger,
    J. F. Gonthier, R. M. Richard, H. R. McAlexander, M. Saitow, X. Wang,
    P. Verma, M. H. Lechner, and A. Jiang

             Previous Authors, Complete List of Code Contributors,
                       and Citations for Specific Modules
    https://github.com/psi4/psi4/blob/master/codemeta.json
    https://github.com/psi4/psi4/graphs/contributors
    http://psicode.org/psi4manual/master/introduction.html#citing-psifour

    -----------------------------------------------------------------------


    Psi4 started on: Thursday, 03 November 2022 12:30PM

    Process ID: 4243
    Host:       DESKTOP-26BCFJT
    PSIDATADIR: /home/chase/psi4conda/share/psi4
    Memory:     500.0 MiB
    Threads:    1
    
  ==> Input File <==

--------------------------------------------------------------------------
molecule { 
-1 1
 C   -1.433598   -0.219780   -0.039787
 C    0.135518    0.006522   -0.000418
 O    0.530762    0.886621    0.777877
 O    0.798226   -0.714365   -0.760500
 H   -1.851327    0.392973   -0.839223
 H   -1.656481   -1.265335   -0.247714
 H   -1.882182    0.080048    0.906073
}
memory 1GB
set_num_threads(2)
psi4_io.set_default_path("/home/chase/temp/Psi4-acet")
set freeze_core True
E, wfn = energy('wb97x-d/6-311+G*',return_wfn=True)
oeprop(wfn,"WIBERG_LOWDIN_INDICES")
clean()
--------------------------------------------------------------------------

  Memory set to 953.674 MiB by Python driver.
  Threads set to 2 by Python driver.

Scratch directory: /home/chase/temp/Psi4-acet/

*** tstart() called on DESKTOP-26BCFJT
*** at Thu Nov  3 12:30:01 2022

   => Loading Basis Set <=

    Name: 6-311+G*
    Role: ORBITAL
    Keyword: BASIS
    atoms 1-2 entry C          line   130 file /home/chase/psi4conda/share/psi4/basis/6-311pgs.gbs 
    atoms 3-4 entry O          line   172 file /home/chase/psi4conda/share/psi4/basis/6-311pgs.gbs 
    atoms 5-7 entry H          line    47 file /home/chase/psi4conda/share/psi4/basis/6-311pgs.gbs 

   => WB97X-D: Empirical Dispersion <=

    Chai and Head-Gordon Dispersion Correction
    Chai, J.-D.; Head-Gordon, M. (2010), J. Chem. Phys., 132: 6615-6620

        s6 =       1.000000


         ---------------------------------------------------------
                                   SCF
               by Justin Turney, Rob Parrish, Andy Simmonett
                          and Daniel G. A. Smith
                              RKS Reference
                        2 Threads,    953 MiB Core
         ---------------------------------------------------------

  ==> Geometry <==

    Molecular point group: c1
    Full point group: C1

    Geometry (in Angstrom), charge = -1, multiplicity = 1:

       Center              X                  Y                   Z               Mass       
    ------------   -----------------  -----------------  -----------------  -----------------
         C           -1.437799133079    -0.209572304013    -0.033232619769    12.000000000000
         C            0.131316866921     0.016729695987     0.006136380231    12.000000000000
         O            0.526560866921     0.896828695987     0.784431380231    15.994914619570
         O            0.794024866921    -0.704157304013    -0.753945619769    15.994914619570
         H           -1.855528133079     0.403180695987    -0.832668619769     1.007825032230
         H           -1.660682133079    -1.255127304013    -0.241159619769     1.007825032230
         H           -1.886383133079     0.090255695987     0.912627380231     1.007825032230

  Running in c1 symmetry.

  Rotational constants: A =      0.39040  B =      0.32801  C =      0.18439 [cm^-1]
  Rotational constants: A =  11703.86035  B =   9833.56293  C =   5527.78796 [MHz]
  Nuclear repulsion =  112.126453082110388

  Charge       = -1
  Multiplicity = 1
  Electrons    = 32
  Nalpha       = 16
  Nbeta        = 16

  ==> Algorithm <==

  SCF Algorithm Type is DF.
  DIIS enabled.
  MOM disabled.
  Fractional occupation disabled.
  Guess Type is SAD.
  Energy threshold   = 1.00e-06
  Density threshold  = 1.00e-06
  Integral threshold = 1.00e-12

  ==> Primary Basis <==

  Basis Set: 6-311+G*
    Blend: 6-311+G*
    Number of shells: 49
    Number of basis functions: 97
    Number of Cartesian functions: 101
    Spherical Harmonics?: true
    Max angular momentum: 2

  ==> DFT Potential <==

   => LibXC <=

    Version 5.1.5
    S. Lehtola, C. Steigemann, M. J. Oliveira, and M. A. Marques, SoftwareX 7, 1 (2018) (10.1016/j.softx.2017.11.002)

   => Composite Functional: WB97X-D <= 

    wB97X-D Hyb-GGA Exchange-Correlation Functional

    J.-D. Chai and M. Head-Gordon, Phys. Chem. Chem. Phys. 10, 6615 (2008) (10.1039/B810189B)

    Deriv               =              1
    GGA                 =           TRUE
    Meta                =          FALSE

    Exchange Hybrid     =           TRUE
    MP2 Hybrid          =          FALSE

   => Exchange-Correlation Functionals <=

    1.0000   wB97X-D range-separated functional

   => Exact (HF) Exchange <=

    0.7780            HF,LR [omega = 0.2000]
    0.2220               HF 

   => LibXC Density Thresholds  <==

    XC_HYB_GGA_XC_WB97X_D:  1.00E-14 

   => Molecular Quadrature <=

    Radial Scheme          =       TREUTLER
    Pruning Scheme         =           NONE
    Nuclear Scheme         =       TREUTLER

    Blocking Scheme        =         OCTREE
    BS radius alpha        =              1
    Pruning alpha          =              1
    Radial Points          =             75
    Spherical Points       =            302
    Total Points           =         152668
    Total Blocks           =           1190
    Max Points             =            256
    Max Functions          =             97
    Weights Tolerance      =       1.00E-15

   => Loading Basis Set <=

    Name: (6-311+G* AUX)
    Role: JKFIT
    Keyword: DF_BASIS_SCF
    atoms 1-2 entry C          line   200 file /home/chase/psi4conda/share/psi4/basis/heavy-aug-cc-pvtz-jkfit.gbs 
    atoms 3-4 entry O          line   324 file /home/chase/psi4conda/share/psi4/basis/heavy-aug-cc-pvtz-jkfit.gbs 
    atoms 5-7 entry H          line   116 file /home/chase/psi4conda/share/psi4/basis/heavy-aug-cc-pvtz-jkfit.gbs 

  ==> Integral Setup <==

  DFHelper Memory: AOs need 0.110 GiB; user supplied 0.344 GiB. Using in-core AOs.

  ==> MemDFJK: Density-Fitted J/K Matrices <==

    J tasked:                   Yes
    K tasked:                   Yes
    wK tasked:                  Yes
    Omega:                2.000E-01
    OpenMP threads:               2
    Memory [MiB]:               351
    Algorithm:                 Core
    Schwarz Cutoff:           1E-12
    Mask sparsity (%):       0.5952
    Fitting Condition:        1E-10

   => Auxiliary Basis Set <=

  Basis Set: (6-311+G* AUX)
    Blend: HEAVY-AUG-CC-PVTZ-JKFIT
    Number of shells: 150
    Number of basis functions: 506
    Number of Cartesian functions: 629
    Spherical Harmonics?: true
    Max angular momentum: 4

  Cached 100.0% of DFT collocation blocks in 0.355 [GiB].

  Minimum eigenvalue in the overlap matrix is 2.2987575763E-04.
  Reciprocal condition number of the overlap matrix is 2.7177964032E-05.
    Using symmetric orthogonalization.

  ==> Pre-Iterations <==

  SCF Guess: Superposition of Atomic Densities via on-the-fly atomic UHF (no occupation information).

   -------------------------
    Irrep   Nso     Nmo    
   -------------------------
     A         97      97 
   -------------------------
    Total      97      97
   -------------------------

  ==> Iterations <==

                           Total Energy        Delta E     RMS |[F,P]|

   @DF-RKS iter SAD:  -227.56626100216812   -2.27566e+02   0.00000e+00 
   @DF-RKS iter   1:  -228.16636535499890   -6.00104e-01   9.50361e-03 DIIS/ADIIS
   @DF-RKS iter   2:  -228.16083961149360    5.52574e-03   1.02706e-02 DIIS/ADIIS
   @DF-RKS iter   3:  -228.50881106009166   -3.47971e-01   1.22931e-03 DIIS/ADIIS
   @DF-RKS iter   4:  -228.51432218374848   -5.51112e-03   2.92339e-04 DIIS/ADIIS
   @DF-RKS iter   5:  -228.51473814577972   -4.15962e-04   4.41157e-05 DIIS
   @DF-RKS iter   6:  -228.51475585621628   -1.77104e-05   1.62055e-05 DIIS
   @DF-RKS iter   7:  -228.51475743450467   -1.57829e-06   3.92143e-06 DIIS
   @DF-RKS iter   8:  -228.51475768944593   -2.54941e-07   1.95554e-06 DIIS
   @DF-RKS iter   9:  -228.51475770837214   -1.89262e-08   1.19120e-06 DIIS
   @DF-RKS iter  10:  -228.51475771617393   -7.80179e-09   1.19156e-07 DIIS
  Energy and wave function converged.


  ==> Post-Iterations <==

   Electrons on quadrature grid:
      Ntotal   =   32.0000083584 ; deviation = 8.358e-06 

    Orbital Energies [Eh]
    ---------------------

    Doubly Occupied:                                                      

       1A    -18.980653     2A    -18.980492     3A    -10.169177  
       4A    -10.094938     5A     -0.929805     6A     -0.839821  
       7A     -0.628793     8A     -0.390357     9A     -0.338840  
      10A     -0.326969    11A     -0.316696    12A     -0.277672  
      13A     -0.256485    14A     -0.132647    15A     -0.118173  
      16A     -0.115185  

    Virtual:                                                              

      17A      0.198148    18A      0.239535    19A      0.241242  
      20A      0.245529    21A      0.274035    22A      0.278354  
      23A      0.281473    24A      0.327574    25A      0.335811  
      26A      0.385735    27A      0.399293    28A      0.432109  
      29A      0.455744    30A      0.471500    31A      0.479429  
      32A      0.480321    33A      0.519900    34A      0.528521  
      35A      0.542486    36A      0.568296    37A      0.576341  
      38A      0.670502    39A      0.702127    40A      0.737377  
      41A      0.744386    42A      0.778347    43A      0.862396  
      44A      0.864405    45A      0.913580    46A      0.943323  
      47A      0.971682    48A      1.031332    49A      1.131840  
      50A      1.151399    51A      1.359819    52A      1.380438  
      53A      1.425307    54A      1.454999    55A      1.470404  
      56A      1.473795    57A      1.488573    58A      1.662413  
      59A      1.734416    60A      1.789514    61A      1.844123  
      62A      1.889312    63A      1.892251    64A      1.941570  
      65A      1.992871    66A      2.194976    67A      2.268074  
      68A      2.277566    69A      2.733498    70A      2.737644  
      71A      2.757247    72A      2.940844    73A      3.154979  
      74A      3.156987    75A      3.161927    76A      3.204386  
      77A      3.260075    78A      3.369524    79A      3.434872  
      80A      3.574820    81A      3.620419    82A      3.689109  
      83A      3.734856    84A      3.844019    85A      3.981638  
      86A      4.282062    87A      4.343140    88A      5.355725  
      89A      5.398568    90A      5.419578    91A      5.508131  
      92A      5.881527    93A      6.196939    94A     23.837029  
      95A     24.206896    96A     50.285220    97A     50.380382  

    Final Occupation by Irrep:
              A 
    DOCC [    16 ]

  @DF-RKS Final Energy:  -228.51475771617393

   => Energetics <=

    Nuclear Repulsion Energy =            112.1264530821103875
    One-Electron Energy =                -541.6286814694492477
    Two-Electron Energy =                 221.3767371454946726
    DFT Exchange-Correlation Energy =     -20.3879573237483669
    Empirical Dispersion Energy =          -0.0013091505813976
    VV10 Nonlocal Energy =                  0.0000000000000000
    Total Energy =                       -228.5147577161739321

Computation Completed


Properties will be evaluated at   0.000000,   0.000000,   0.000000 [a0]

Properties computed using the SCF density matrix


 Multipole Moments:

 ------------------------------------------------------------------------------------
     Multipole            Electronic (a.u.)      Nuclear  (a.u.)        Total (a.u.)
 ------------------------------------------------------------------------------------

 L = 1.  Multiply by 2.5417464519 to convert [e a0] to [Debye]
 Dipole X            :          3.7095289           -5.0584210           -1.3488921
 Dipole Y            :          0.5149914           -0.7131362           -0.1981448
 Dipole Z            :          0.1226079           -0.1509744           -0.0283665
 Magnitude           :                                                    1.3636627

 ------------------------------------------------------------------------------------

*** tstop() called on DESKTOP-26BCFJT at Thu Nov  3 12:30:07 2022
Module time:
	user time   =      10.81 seconds =       0.18 minutes
	system time =       0.24 seconds =       0.00 minutes
	total time  =          6 seconds =       0.10 minutes
Total time:
	user time   =      10.81 seconds =       0.18 minutes
	system time =       0.24 seconds =       0.00 minutes
	total time  =          6 seconds =       0.10 minutes


Properties will be evaluated at   0.000000,   0.000000,   0.000000 [a0]
OEProp: No title given, name of density matrix used for the following properties is 'SCF density'


  Wiberg Bond Indices using Orthogonal Lowdin Orbitals:

  Irrep: 1 Size: 7 x 7

                 1                   2                   3                   4                   5

    1     0.00000000000000     1.04489990726811     0.18138752276569     0.18195817459272     0.91563161710383
    2     1.04489990726811     0.00000000000000     2.12207176509621     2.12137392276564     0.04255713216086
    3     0.18138752276569     2.12207176509621     0.00000000000000     0.29081298543375     0.01233252985735
    4     0.18195817459272     2.12137392276564     0.29081298543375     0.00000000000000     0.01284602586299
    5     0.91563161710383     0.04255713216086     0.01233252985735     0.01284602586299     0.00000000000000
    6     0.91897086666349     0.04003067144313     0.00968293816229     0.01820022865561     0.00891642631006
    7     0.91940633229114     0.03978346901838     0.01872011389733     0.00938439589265     0.00906625398151

                 6                   7

    1     0.91897086666349     0.91940633229114
    2     0.04003067144313     0.03978346901838
    3     0.00968293816229     0.01872011389733
    4     0.01820022865561     0.00938439589265
    5     0.00891642631006     0.00906625398151
    6     0.00000000000000     0.01018374347146
    7     0.01018374347146     0.00000000000000



  Atomic Valences: 

 #  #
 Irrep: 1
      1:    4.162254420684979
      2:    5.410716867752329
      3:    2.635007855212613
      4:    2.634575733203363
      5:    1.001349985276586
      6:    1.005984874706043
      7:    1.006544308552467


    Psi4 stopped on: Thursday, 03 November 2022 12:30PM
    Psi4 wall time for execution: 0:00:05.70

*** Psi4 exiting successfully. Buy a developer a beer!
