7
 energy: -14.164636352680 gnorm: 0.044919585556 xtb: 6.5.1 (b24c23e)
C           -1.41988630000000       -0.21549696000000       -0.05007643000000
C            0.13465739000000        0.01484766000000       -0.00016301000000
O            0.69542907000000        0.11860142000000       -1.12397762000000
O            0.62948863000000        0.06724900000000        1.15758274000000
H           -1.90488821000000        0.24643074000000        0.82511626000000
H           -1.84449595000000        0.22829283000000       -0.96506432000000
H           -1.64938564000000       -1.29324169000000       -0.04710863000000
7
 energy: -14.166040636386 gnorm: 0.011843562880 xtb: 6.5.1 (b24c23e)
C           -1.42624559968091       -0.20747470349548       -0.05061223453207
C            0.12963701455468        0.02133357208277       -0.00026806447714
O            0.69332608420408        0.11113391313625       -1.10543847805091
O            0.62788332601646        0.05896176948588        1.13883381581214
H           -1.90522139010753        0.24105727107989        0.82332795905354
H           -1.84540351382934        0.22243703503761       -0.96386238146794
H           -1.63305693115745       -1.28076585732693       -0.04567162633761
7
 energy: -14.166085517330 gnorm: 0.009827854299 xtb: 6.5.1 (b24c23e)
C           -1.43134952305585       -0.20929531112204       -0.05212336991440
C            0.13280246469492        0.00646831965635       -0.00078616515234
O            0.69726969476309        0.10504169872220       -1.09884021192838
O            0.62648053173717        0.07897691107842        1.13297358652913
H           -1.90188775542125        0.23281019329739        0.82506520697627
H           -1.84735436404728        0.23285315885005       -0.95629508587967
H           -1.63504205867080       -1.28017197048237       -0.05368497063060
7
 energy: -14.166157238631 gnorm: 0.004629481166 xtb: 6.5.1 (b24c23e)
C           -1.43411566298474       -0.20605214686782       -0.05076613380982
C            0.13228595538068        0.01844970202975       -0.00036693981761
O            0.69792650708248        0.10621099127493       -1.09894174324995
O            0.63086789361899        0.06493993775068        1.13251663400162
H           -1.90723669065355        0.23680623216761        0.82426689302609
H           -1.84837613383066        0.22466652241187       -0.96065456857645
H           -1.63043287861320       -1.27833823876702       -0.04974515157387
7
 energy: -14.166164712958 gnorm: 0.002021391192 xtb: 6.5.1 (b24c23e)
C           -1.43387696880412       -0.20673114745679       -0.05090809510553
C            0.13288456184395        0.01722152827933       -0.00029256791467
O            0.69742920547931        0.10680724558518       -1.10049656550990
O            0.63038140103466        0.06615772790180        1.13428647920734
H           -1.90632681038660        0.23707477787972        0.82459619614086
H           -1.84804254366722        0.22555294005816       -0.96096617991761
H           -1.63152985549998       -1.27940007224739       -0.04991027690048
7
 energy: -14.166165906022 gnorm: 0.000833518233 xtb: 6.5.1 (b24c23e)
C           -1.43428024283847       -0.20702210783792       -0.05094628490073
C            0.13340947867679        0.01678600207777       -0.00032535355327
O            0.69750773152706        0.10663055897635       -1.10051192577159
O            0.63026957099720        0.06692662866435        1.13428296709619
H           -1.90623627041511        0.23682042279154        0.82464621148863
H           -1.84797179294441        0.22607244377112       -0.96068242671240
H           -1.63177948500305       -1.27953094844320       -0.05015419764683
