Generated by Psi4
        SP                        DF-MP2                      6-311G**
Number of atoms                            I                9
Charge                                     I               -1
Multiplicity                               I                1
Number of electrons                        I               58
Number of alpha electrons                  I               29
Number of beta electrons                   I               29
Number of basis functions                  I              134
Number of independent functions            I              134
Atomic numbers                             I   N=           9
          16           8           8           8           6           8
           1           1           1
Nuclear charges                            R   N=           9
  1.60000000e+01  8.00000000e+00  8.00000000e+00  8.00000000e+00  6.00000000e+00
  8.00000000e+00  1.00000000e+00  1.00000000e+00  1.00000000e+00
Current cartesian coordinates              R   N=          27
 -8.30511446e-01  1.20235135e-01  1.47306956e-01 -1.34968404e+00  1.43354038e-01
 -2.60299410e+00 -1.02259553e+00 -2.41108683e+00  1.32617707e+00  2.28984303e+00
  8.12623180e-01  3.37684644e-01  3.81074623e+00 -9.85955464e-01 -9.58232622e-01
 -1.91485845e+00  2.22526599e+00  1.60610151e+00  3.33302542e+00 -1.04504270e+00
 -2.97067617e+00  5.77104728e+00 -3.75970098e-01 -7.24851417e-01  3.56755068e+00
 -2.87664421e+00 -1.53385775e-01
Integer atomic weights                     I   N=           9
          32          16          16          16          12          16
           1           1           1
Real atomic weights                        R   N=           9
  3.19720712e+01  1.59949146e+01  1.59949146e+01  1.59949146e+01  1.20000000e+01
  1.59949146e+01  1.00782503e+00  1.00782503e+00  1.00782503e+00
Number of primitive shells                 I              126
Number of contracted shells                I               64
Pure/Cartesian d shells                    I                0
Pure/Cartesian f shells                    I                0
Highest angular momentum                   I                2
Largest degree of contraction              I                6
Shell types                                I   N=          64
           0           0           0           0           0           0
           1           1           1           1           1          -2
           0           0           1           0           1           0
           1          -2           0           0           1           0
           1           0           1          -2           0           0
           1           0           1           0           1          -2
           0           0           1           0           1           0
           1          -2           0           0           1           0
           1           0           1          -2           0           0
           0           1           0           0           0           1
           0           0           0           1
Number of primitives per shell             I   N=          64
           6           3           1           1           1           1
           4           2           1           1           1           1
           6           3           3           1           1           1
           1           1           6           3           3           1
           1           1           1           1           6           3
           3           1           1           1           1           1
           6           3           3           1           1           1
           1           1           6           3           3           1
           1           1           1           1           3           1
           1           1           3           1           1           1
           3           1           1           1
Shell to atom map                          I   N=          64
           1           1           1           1           1           1
           1           1           1           1           1           1
           2           2           2           2           2           2
           2           2           3           3           3           3
           3           3           3           3           4           4
           4           4           4           4           4           4
           5           5           5           5           5           5
           5           5           6           6           6           6
           6           6           6           6           7           7
           7           7           8           8           8           8
           9           9           9           9
Primitive exponents                        R   N=         126
  9.34134000e+04  1.39617000e+04  3.16991000e+03  9.02456000e+02  2.97158000e+02
  1.08702000e+02  1.08702000e+02  4.31553000e+01  1.81079000e+01  5.56009000e+00
  2.13183000e+00  4.20403000e-01  1.36045000e-01  4.95040000e+02  1.17221000e+02
  3.77749000e+01  1.40584000e+01  5.56574000e+00  2.26297000e+00  8.07994000e-01
  2.77460000e-01  7.71410000e-02  6.50000000e-01  8.58850000e+03  1.29723000e+03
  2.99296000e+02  8.73771000e+01  2.56789000e+01  3.74004000e+00  4.21175000e+01
  9.62837000e+00  2.85332000e+00  4.21175000e+01  9.62837000e+00  2.85332000e+00
  9.05661000e-01  9.05661000e-01  2.55611000e-01  2.55611000e-01  1.29200000e+00
  8.58850000e+03  1.29723000e+03  2.99296000e+02  8.73771000e+01  2.56789000e+01
  3.74004000e+00  4.21175000e+01  9.62837000e+00  2.85332000e+00  4.21175000e+01
  9.62837000e+00  2.85332000e+00  9.05661000e-01  9.05661000e-01  2.55611000e-01
  2.55611000e-01  1.29200000e+00  8.58850000e+03  1.29723000e+03  2.99296000e+02
  8.73771000e+01  2.56789000e+01  3.74004000e+00  4.21175000e+01  9.62837000e+00
  2.85332000e+00  4.21175000e+01  9.62837000e+00  2.85332000e+00  9.05661000e-01
  9.05661000e-01  2.55611000e-01  2.55611000e-01  1.29200000e+00  4.56324000e+03
  6.82024000e+02  1.54973000e+02  4.44553000e+01  1.30290000e+01  1.82773000e+00
  2.09642000e+01  4.80331000e+00  1.45933000e+00  2.09642000e+01  4.80331000e+00
  1.45933000e+00  4.83456000e-01  4.83456000e-01  1.45585000e-01  1.45585000e-01
  6.26000000e-01  8.58850000e+03  1.29723000e+03  2.99296000e+02  8.73771000e+01
  2.56789000e+01  3.74004000e+00  4.21175000e+01  9.62837000e+00  2.85332000e+00
  4.21175000e+01  9.62837000e+00  2.85332000e+00  9.05661000e-01  9.05661000e-01
  2.55611000e-01  2.55611000e-01  1.29200000e+00  3.38650000e+01  5.09479000e+00
  1.15879000e+00  3.25840000e-01  1.02741000e-01  7.50000000e-01  3.38650000e+01
  5.09479000e+00  1.15879000e+00  3.25840000e-01  1.02741000e-01  7.50000000e-01
  3.38650000e+01  5.09479000e+00  1.15879000e+00  3.25840000e-01  1.02741000e-01
  7.50000000e-01
Contraction coefficients                   R   N=         126
  7.42999957e-04  5.79299966e-03  2.99539983e-02  1.19027993e-01  3.68431979e-01
  5.77298966e-01  1.43186060e-01  6.24465262e-01  2.83366119e-01  1.00000000e+00
  1.00000000e+00  1.00000000e+00  1.00000000e+00  8.30900251e-03  6.40240194e-02
  2.77614084e-01  7.45076225e-01  6.13711672e-01  4.43817763e-01  1.00000000e+00
  1.00000000e+00  1.00000000e+00  1.00000000e+00  1.89515008e-03  1.43859006e-02
  7.07320031e-02  2.40001011e-01  5.94797026e-01  2.80802012e-01  1.13889012e-01
  9.20811101e-01 -3.27447036e-03  3.65113974e-02  2.37152983e-01  8.19701941e-01
  1.00000000e+00  1.00000000e+00  1.00000000e+00  1.00000000e+00  1.00000000e+00
  1.89515008e-03  1.43859006e-02  7.07320031e-02  2.40001011e-01  5.94797026e-01
  2.80802012e-01  1.13889012e-01  9.20811101e-01 -3.27447036e-03  3.65113974e-02
  2.37152983e-01  8.19701941e-01  1.00000000e+00  1.00000000e+00  1.00000000e+00
  1.00000000e+00  1.00000000e+00  1.89515008e-03  1.43859006e-02  7.07320031e-02
  2.40001011e-01  5.94797026e-01  2.80802012e-01  1.13889012e-01  9.20811101e-01
 -3.27447036e-03  3.65113974e-02  2.37152983e-01  8.19701941e-01  1.00000000e+00
  1.00000000e+00  1.00000000e+00  1.00000000e+00  1.00000000e+00  1.96665025e-03
  1.52306019e-02  7.61269097e-02  2.60801033e-01  6.16462078e-01  2.21006028e-01
  1.14660081e-01  9.19999648e-01 -3.03068213e-03  4.02486927e-02  2.37593957e-01
  8.15853851e-01  1.00000000e+00  1.00000000e+00  1.00000000e+00  1.00000000e+00
  1.00000000e+00  1.89515008e-03  1.43859006e-02  7.07320031e-02  2.40001011e-01
  5.94797026e-01  2.80802012e-01  1.13889012e-01  9.20811101e-01 -3.27447036e-03
  3.65113974e-02  2.37152983e-01  8.19701941e-01  1.00000000e+00  1.00000000e+00
  1.00000000e+00  1.00000000e+00  1.00000000e+00  2.54938145e-02  1.90373109e-01
  8.52161486e-01  1.00000000e+00  1.00000000e+00  1.00000000e+00  2.54938145e-02
  1.90373109e-01  8.52161486e-01  1.00000000e+00  1.00000000e+00  1.00000000e+00
  2.54938145e-02  1.90373109e-01  8.52161486e-01  1.00000000e+00  1.00000000e+00
  1.00000000e+00
Coordinates of each shell                  R   N=         192
 -8.30511446e-01  1.20235135e-01  1.47306956e-01 -8.30511446e-01  1.20235135e-01
  1.47306956e-01 -8.30511446e-01  1.20235135e-01  1.47306956e-01 -8.30511446e-01
  1.20235135e-01  1.47306956e-01 -8.30511446e-01  1.20235135e-01  1.47306956e-01
 -8.30511446e-01  1.20235135e-01  1.47306956e-01 -8.30511446e-01  1.20235135e-01
  1.47306956e-01 -8.30511446e-01  1.20235135e-01  1.47306956e-01 -8.30511446e-01
  1.20235135e-01  1.47306956e-01 -8.30511446e-01  1.20235135e-01  1.47306956e-01
 -8.30511446e-01  1.20235135e-01  1.47306956e-01 -8.30511446e-01  1.20235135e-01
  1.47306956e-01 -1.34968404e+00  1.43354038e-01 -2.60299410e+00 -1.34968404e+00
  1.43354038e-01 -2.60299410e+00 -1.34968404e+00  1.43354038e-01 -2.60299410e+00
 -1.34968404e+00  1.43354038e-01 -2.60299410e+00 -1.34968404e+00  1.43354038e-01
 -2.60299410e+00 -1.34968404e+00  1.43354038e-01 -2.60299410e+00 -1.34968404e+00
  1.43354038e-01 -2.60299410e+00 -1.34968404e+00  1.43354038e-01 -2.60299410e+00
 -1.02259553e+00 -2.41108683e+00  1.32617707e+00 -1.02259553e+00 -2.41108683e+00
  1.32617707e+00 -1.02259553e+00 -2.41108683e+00  1.32617707e+00 -1.02259553e+00
 -2.41108683e+00  1.32617707e+00 -1.02259553e+00 -2.41108683e+00  1.32617707e+00
 -1.02259553e+00 -2.41108683e+00  1.32617707e+00 -1.02259553e+00 -2.41108683e+00
  1.32617707e+00 -1.02259553e+00 -2.41108683e+00  1.32617707e+00  2.28984303e+00
  8.12623180e-01  3.37684644e-01  2.28984303e+00  8.12623180e-01  3.37684644e-01
  2.28984303e+00  8.12623180e-01  3.37684644e-01  2.28984303e+00  8.12623180e-01
  3.37684644e-01  2.28984303e+00  8.12623180e-01  3.37684644e-01  2.28984303e+00
  8.12623180e-01  3.37684644e-01  2.28984303e+00  8.12623180e-01  3.37684644e-01
  2.28984303e+00  8.12623180e-01  3.37684644e-01  3.81074623e+00 -9.85955464e-01
 -9.58232622e-01  3.81074623e+00 -9.85955464e-01 -9.58232622e-01  3.81074623e+00
 -9.85955464e-01 -9.58232622e-01  3.81074623e+00 -9.85955464e-01 -9.58232622e-01
  3.81074623e+00 -9.85955464e-01 -9.58232622e-01  3.81074623e+00 -9.85955464e-01
 -9.58232622e-01  3.81074623e+00 -9.85955464e-01 -9.58232622e-01  3.81074623e+00
 -9.85955464e-01 -9.58232622e-01 -1.91485845e+00  2.22526599e+00  1.60610151e+00
 -1.91485845e+00  2.22526599e+00  1.60610151e+00 -1.91485845e+00  2.22526599e+00
  1.60610151e+00 -1.91485845e+00  2.22526599e+00  1.60610151e+00 -1.91485845e+00
  2.22526599e+00  1.60610151e+00 -1.91485845e+00  2.22526599e+00  1.60610151e+00
 -1.91485845e+00  2.22526599e+00  1.60610151e+00 -1.91485845e+00  2.22526599e+00
  1.60610151e+00  3.33302542e+00 -1.04504270e+00 -2.97067617e+00  3.33302542e+00
 -1.04504270e+00 -2.97067617e+00  3.33302542e+00 -1.04504270e+00 -2.97067617e+00
  3.33302542e+00 -1.04504270e+00 -2.97067617e+00  5.77104728e+00 -3.75970098e-01
 -7.24851417e-01  5.77104728e+00 -3.75970098e-01 -7.24851417e-01  5.77104728e+00
 -3.75970098e-01 -7.24851417e-01  5.77104728e+00 -3.75970098e-01 -7.24851417e-01
  3.56755068e+00 -2.87664421e+00 -1.53385775e-01  3.56755068e+00 -2.87664421e+00
 -1.53385775e-01  3.56755068e+00 -2.87664421e+00 -1.53385775e-01  3.56755068e+00
 -2.87664421e+00 -1.53385775e-01
Total Energy                               R     -7.377478743112929e+02
Alpha Orbital Energies                     R   N=         134
 -9.20362788e+01 -2.04188124e+01 -2.03485024e+01 -2.03484768e+01 -2.03480079e+01
 -1.11372352e+01 -9.00384975e+00 -6.68974607e+00 -6.68905541e+00 -6.68883343e+00
 -1.30962390e+00 -1.18816853e+00 -1.13731923e+00 -1.13383139e+00 -7.96672842e-01
 -6.36958629e-01 -5.38490245e-01 -5.01502486e-01 -4.95800894e-01 -4.61608047e-01
 -4.42265680e-01 -3.93570624e-01 -3.31860038e-01 -3.31166854e-01 -3.21680415e-01
 -3.00722190e-01 -2.83122478e-01 -2.73336839e-01 -2.46753151e-01  2.95750961e-01
  3.49580193e-01  3.75061426e-01  4.19482353e-01  4.28904039e-01  4.70733830e-01
  4.76562985e-01  4.96485028e-01  5.45537198e-01  5.92935043e-01  5.99067712e-01
  6.43623125e-01  6.52691395e-01  8.07392629e-01  8.27432062e-01  9.06624141e-01
  9.15862883e-01  9.30870208e-01  1.01874755e+00  1.08245769e+00  1.10004087e+00
  1.12549414e+00  1.13738242e+00  1.17316114e+00  1.22304564e+00  1.23308299e+00
  1.28553279e+00  1.36593717e+00  1.37020520e+00  1.37498348e+00  1.40722576e+00
  1.44191174e+00  1.46540284e+00  1.50566817e+00  1.51480632e+00  1.62003326e+00
  1.62566725e+00  1.64740924e+00  1.75060302e+00  1.77881650e+00  1.85430596e+00
  1.86531814e+00  1.87747121e+00  1.92825081e+00  2.00084746e+00  2.03669118e+00
  2.07369270e+00  2.12072207e+00  2.22121870e+00  2.22369863e+00  2.32311715e+00
  2.41708249e+00  2.53435465e+00  2.54611230e+00  2.78361737e+00  2.85873718e+00
  2.94859270e+00  2.95968505e+00  2.96896564e+00  3.24045652e+00  3.33163089e+00
  3.34631037e+00  3.39246440e+00  3.39317964e+00  3.39319797e+00  3.39681874e+00
  3.39943875e+00  3.40512026e+00  3.45086892e+00  3.47703890e+00  3.56188559e+00
  3.57274919e+00  3.65432575e+00  3.67827591e+00  3.73686029e+00  3.74309043e+00
  3.79621214e+00  3.98220099e+00  4.11403297e+00  4.12409684e+00  4.30592963e+00
  4.33848413e+00  4.56572432e+00  5.55505984e+00  5.56029604e+00  5.59462773e+00
  5.59534252e+00  5.61093423e+00  5.61188537e+00  5.63786143e+00  5.64644920e+00
  5.75264399e+00  5.92448968e+00  5.95178542e+00  6.15660163e+00  8.67522612e+00
  1.84381682e+01  1.85657290e+01  1.86223160e+01  2.51473927e+01  5.16739876e+01
  5.16755599e+01  5.16977345e+01  5.18096059e+01  1.92369545e+02
Alpha MO coefficients                      R   N=       17956
  4.11079147e-01  6.54986767e-01  1.21623734e-02 -1.39026553e-03  4.56518200e-04
 -1.56720560e-04  3.36032552e-05  5.79727951e-06  9.71644785e-07 -9.53140119e-06
 -8.32659858e-07  2.52099686e-07  9.57330808e-06 -2.29280183e-06 -2.28752529e-06
 -1.85279756e-05  8.39419879e-06  6.99969927e-06 -3.86996138e-05  1.95432754e-05
  1.59272665e-05  6.60738289e-06 -1.98378603e-06  1.75936193e-06 -1.20866327e-05
 -5.89681607e-06 -2.47314434e-07  3.26305884e-06  1.37880635e-06 -1.76629365e-08
  6.95000295e-06 -1.51564071e-06 -4.94867391e-06  2.67738802e-07 -2.52221601e-05
 -8.09575803e-06 -9.51018430e-07 -2.58920527e-06 -2.53633378e-05 -2.27444241e-05
 -7.12907259e-06 -2.18324945e-07 -1.35367393e-06  6.24634859e-07 -2.47319295e-07
  3.26308488e-06  5.54716688e-07  6.41837297e-06 -2.94973971e-06 -1.51573084e-06
 -1.94309605e-06 -2.32054897e-05  1.08836745e-05 -8.09582393e-06  1.81619377e-06
 -2.41988170e-05  7.87577815e-06  6.34343377e-06  1.72580791e-06  1.56503225e-05
  1.66817504e-05 -1.99334667e-06  5.58635629e-07 -1.30774118e-06 -3.26020523e-06
  4.73515196e-07  5.79247749e-07  1.57322818e-05  6.54591516e-06 -3.10536894e-06
 -2.56381292e-06 -4.64952335e-05 -3.98714950e-08  3.22072046e-05  2.09421164e-05
  6.74995636e-06 -2.51881448e-07 -3.49211161e-06 -8.15725672e-06 -3.21703445e-06
 -1.56969126e-07  3.57259928e-07  1.83140477e-06 -5.24741513e-07 -4.93613401e-07
 -1.08694864e-05 -6.27759017e-06  1.11599160e-06  1.24815141e-06  8.34726510e-05
 -6.85653904e-05  1.74905459e-06  6.84491986e-06  1.42951242e-07 -3.62819688e-06
 -2.74955430e-07  9.98855678e-07 -5.46872840e-06  7.81166713e-09  1.96059164e-06
  4.26543744e-06 -5.89147029e-06 -4.18526497e-06  7.99593148e-06 -1.50427417e-05
  2.17851929e-05  1.54153131e-05 -4.70839177e-05 -3.45755468e-06  2.55186165e-05
  1.68779751e-05  2.32608324e-06  8.91417386e-06 -1.75432629e-05  9.16753946e-06
  1.28141003e-05  3.26706662e-06 -2.90688765e-05  8.86218658e-06  3.33977641e-06
  1.62243749e-06 -3.62869229e-06 -1.05096597e-06  1.29652764e-05  8.79705903e-06
 -1.16513545e-06 -2.09171307e-06 -1.26289206e-06  3.26705811e-06 -2.90689409e-05
  8.86230930e-06  3.85279915e-06 -2.38443788e-06  2.53453403e-06  1.79007992e-06
  4.23259607e-06 -2.12237608e-06 -4.56661788e-05  3.95153414e-06  4.57123205e-04
 -8.04965456e-06 -1.30386242e-06 -1.77559138e-07 -3.23086907e-05 -7.57498612e-06
 -2.23510254e-06  4.55958096e-05  1.75966860e-05  7.64444765e-06  1.56866706e-04
  2.56662954e-06 -1.13904710e-05  1.25092598e-04  6.67431878e-05  3.29778016e-05
 -4.39625974e-05  5.37849032e-06 -8.80273383e-06  7.99967150e-05  2.74766435e-05
 -8.30935069e-05 -7.36126552e-05 -7.08645343e-06 -1.75794585e-06 -4.36734423e-06
  2.67921669e-05  2.72007844e-06  2.19203063e-06  1.91989903e-06 -1.26317617e-04
 -7.25736861e-05 -1.77749378e-05 -5.97928561e-05  2.23346542e-06 -9.22024874e-06
 -2.00020651e-06 -3.78805954e-06 -2.52098543e-07 -8.30936735e-05 -7.36127881e-05
 -6.64221402e-06 -5.22721541e-06  9.68989912e-07  2.67920654e-05  2.63602336e-06
  2.84803670e-06  9.10864067e-07 -1.26317244e-04 -6.62521919e-05 -6.71421432e-05
  1.61428129e-05  2.64730743e-06  4.44314311e-06 -4.10221315e-08 -1.27761299e-06
 -8.94598583e-06  5.51488801e-01  4.71676582e-01 -4.01125182e-04 -1.32604206e-03
 -8.28703205e-04  5.49541879e-03  9.05070478e-05  4.97318507e-04  3.15785758e-04
 -7.19258478e-04 -1.17181539e-05 -4.56677450e-05 -2.87142185e-05  9.17347871e-05
  5.67952581e-05 -1.04620029e-04 -7.68400171e-05  4.78604944e-05 -2.99959704e-06
 -2.83792045e-05 -5.24420084e-06  2.37438822e-05  1.58730564e-05  8.12275837e-05
 -1.67242205e-04  1.27303129e-04  9.66859838e-05  2.51850165e-04 -8.74298881e-06
  1.32543036e-04  8.68976078e-05 -1.61625387e-05 -7.16282697e-05  5.26361648e-05
  2.01151880e-07 -1.01419845e-04 -7.26762018e-05 -6.56391179e-05 -6.14311900e-06
  2.68469725e-06  2.25676315e-06  3.09534252e-05 -8.10185433e-09 -4.56453761e-06
 -2.96678774e-06 -1.31669082e-04 -5.41842088e-05  1.79147897e-05  1.61574321e-05
 -5.99117729e-08  9.46769758e-07  4.74145770e-06 -4.35180294e-06  1.29694508e-06
  1.01747170e-05 -3.55336701e-05  1.29903786e-05  1.11094873e-05 -2.35796788e-05
  3.57799916e-06  2.25942205e-05 -5.04705378e-05 -3.09949222e-05 -2.17586287e-05
 -1.10948850e-05 -5.40176531e-06  1.01748521e-05 -3.55340208e-05  1.29905520e-05
  8.79992162e-06 -5.54154941e-06 -2.41677673e-05 -2.14758394e-08 -5.06296485e-08
  3.07253581e-08  5.27552401e-07 -3.98976622e-07 -2.89474219e-06  9.03011136e-07
 -7.09561676e-06  1.08549340e-05  5.75625497e-06 -4.55822649e-05  6.97375547e-05
 -9.58415258e-06  7.63128247e-05 -1.16769419e-04 -1.86001975e-05  1.45878718e-04
 -2.23082936e-04 -1.73692947e-05  1.34977285e-04 -2.06285741e-04  1.30725962e-04
  3.89917022e-05  7.16820355e-05  8.13681281e-05 -1.13614258e-05  3.88480183e-01
  3.32270300e-01  2.44376104e-04 -2.31739300e-05  1.17922062e-03  3.78444521e-03
 -7.64274879e-05  1.63448572e-05 -3.75205612e-04 -3.05025403e-04  9.53182108e-06
 -6.31416165e-05  8.05974679e-05 -5.29020244e-05 -1.51168027e-05 -4.21993952e-06
 -1.44481836e-05 -1.81974323e-06 -3.91437653e-01 -3.34799823e-01 -1.03715188e-04
 -1.08975395e-03  5.23864303e-04 -3.81353485e-03  3.09821048e-05  3.42917765e-04
 -1.74572841e-04  3.08509728e-04  4.74824844e-06 -4.82453428e-05  9.01428669e-05
 -2.58882051e-05 -3.13630867e-06 -3.83021741e-05 -3.36093753e-05  5.28834426e-06
 -4.46759779e-07 -3.76130414e-07  5.62451898e-07 -4.64012107e-06  7.12121014e-06
 -1.10880320e-07 -1.03119620e-06  7.89462147e-06 -1.21849872e-05  6.02868637e-07
  6.01049485e-06 -4.93012298e-05  7.54650205e-05 -2.98730511e-06 -9.21131831e-06
 -2.67860009e-06 -3.22562794e-06  5.59710766e-06 -2.12839058e-09  3.27126100e-09
  1.33028525e-07 -9.89734406e-07  1.53879090e-06 -9.79418704e-08  1.59567974e-07
 -1.13499326e-06  1.59764674e-06  4.98503750e-07 -3.61461614e-07  7.65408115e-07
 -1.47025981e-06 -8.94810997e-06 -6.16019851e-07 -4.64063043e-06 -5.18717078e-06
 -4.72942068e-07  7.51446452e-05  6.42792712e-05  1.09706770e-06 -8.04609649e-06
  1.18695647e-05  6.46958761e-07 -1.72852703e-06  1.31854288e-05 -1.99894162e-05
  2.95873229e-07  8.18698421e-06 -6.36737626e-05  9.71540328e-05 -7.49498581e-06
  1.02411682e-06 -3.68427015e-06 -4.10891401e-06 -1.42688303e-06  8.80173114e-07
 -7.59445559e-06  1.24820700e-05  4.73068578e-07 -2.13809768e-06  6.71675316e-06
 -9.55133099e-09 -3.97149629e-09  1.01335666e-07  1.57182309e-07 -1.14318622e-06
  1.79236488e-06 -8.59600601e-07  7.34487756e-06 -1.26661259e-05  4.81952304e-07
 -5.35137864e-06  4.73518047e-06  5.64950903e-06  1.33202607e-05 -8.09403614e-06
 -1.38750232e-04  1.04804629e-04  7.61863254e-04  5.44882861e-07  7.15621881e-06
  4.66602758e-06  1.52787099e-05  4.57639746e-05  2.88590593e-05 -3.96612354e-05
 -7.51739774e-05 -4.62046907e-05 -7.18968179e-07 -1.56798611e-04 -1.03090344e-04
  4.30868694e-05 -1.58701583e-04 -1.07883240e-04  7.82429846e-05  3.24161386e-05
 -7.99169797e-05 -6.79569342e-05  1.65873446e-05  3.91160372e-01  3.34559202e-01
  2.45141592e-04 -7.89435056e-06  1.17460409e-03  3.84711318e-03 -7.26248864e-05
 -8.21493711e-06 -3.61584017e-04 -4.60024984e-04 -1.09476728e-05  6.75049824e-05
 -2.54666481e-05 -5.24069495e-05 -1.56114166e-05  7.53598988e-06 -1.13147890e-05
 -1.16421482e-06  3.88201009e-01  3.32028034e-01  1.04586930e-04  1.07542587e-03
 -5.00440010e-04  3.81828443e-03 -3.01978752e-05 -3.35132475e-04  1.43938886e-04
 -4.57698353e-04 -2.72872243e-06  3.23137183e-06  7.35200408e-05  1.56856131e-05
  1.73498022e-06  4.40628546e-05  3.02026794e-05 -5.08458185e-06  1.17553228e-04
  9.89650796e-05  8.05846037e-06  2.22941448e-06  8.17173148e-07  2.92229762e-05
  4.68413239e-06  5.21873775e-06  2.93692619e-06 -1.58804213e-04  7.34533792e-05
  4.71419209e-05  2.49428708e-05  2.44626495e-06 -1.85586225e-06 -2.73331674e-06
 -1.22419908e-06 -3.68720176e-06  5.62648244e-07 -8.62746193e-07 -1.39850123e-06
 -2.04921411e-06 -1.20755606e-06  2.58120335e-05 -6.01003271e-06  1.76627109e-05
  1.19926517e-05 -1.31070332e-04  6.45785314e-05  3.77346356e-05  1.91492597e-05
  1.71255778e-07 -8.47256718e-06  6.67415166e-06 -3.95701058e-06 -1.29326288e-05
 -2.08843608e-02 -1.78645215e-02 -2.65674573e-05  6.26096126e-05  4.29807395e-05
 -1.81085844e-04  1.54135973e-05 -3.53621643e-05 -2.43817508e-05 -7.69008743e-05
 -2.09455257e-05  9.38481483e-05  6.32846364e-05 -2.43872127e-06 -2.13783148e-06
  3.56324266e-06  1.44898902e-06 -2.25702767e-06 -2.70449694e-06  3.27919043e-05
  2.41937891e-05  8.31631271e-07 -2.39176453e-06  1.26515847e-05  2.52737896e-06
  9.83624564e-07 -2.66815219e-05 -2.30594515e-06 -4.17946894e-06 -2.51560034e-06
 -2.71085020e-06  3.28476069e-05  2.40976995e-05 -8.27055030e-07  1.05517558e-05
 -7.28430907e-06  4.53408321e-06  9.34401601e-06  3.22317979e-06 -1.31872415e-04
  1.69285269e-04  3.26933460e-04  3.61146299e-06 -8.39335103e-06 -5.75722869e-06
  3.04037621e-05 -5.18689179e-05 -3.62513803e-05 -5.97041245e-05  8.21630124e-05
  5.83849006e-05 -5.25882184e-05  1.91434996e-04  1.28831363e-04 -1.16617572e-04
  2.14432821e-04  1.49113295e-04 -1.76297350e-05 -5.42315504e-05  1.09327092e-04
 -5.22371243e-05 -7.65176149e-05  1.47726737e-02  1.26349263e-02  1.20308614e-05
 -1.03875610e-05  3.38680266e-05  1.48729773e-04 -4.24844039e-06  1.91680209e-05
  7.06889182e-07 -1.92873724e-05  2.71918081e-05 -8.73787188e-05 -4.98474261e-05
 -9.30727560e-07  2.91605071e-06 -7.53697152e-06 -9.35132159e-08  1.33065257e-06
  1.47668712e-02  1.26299633e-02  7.18189782e-06  2.74531462e-05 -2.43545804e-05
  1.48673206e-04 -2.83790214e-06  8.16033456e-06  1.76439174e-05 -1.92825615e-05
  2.61179525e-05 -7.89908201e-05 -6.27492601e-05  5.03664444e-06  1.04242275e-06
 -4.75441990e-06  2.99177705e-06  3.15341994e-06  7.94634017e-05  6.70666135e-05
  6.33341515e-06 -1.09976757e-06 -1.24212918e-06  1.61002399e-05  2.02307016e-06
  4.06376355e-06  2.47338280e-06 -1.07921836e-04  7.73763540e-05 -2.28131179e-05
 -2.12716575e-05  1.19245140e-06  2.90110160e-06  1.52857758e-06 -4.14634590e-06
  3.76349724e-06 -3.76559330e-07  6.54836693e-07 -9.64511668e-07  2.14845943e-06
  1.47706981e-06 -1.36846747e-05  3.88332714e-07 -1.30606456e-05 -8.52333090e-06
  1.82500460e-05 -1.04212776e-04 -2.44897429e-05 -7.24635304e-06  4.86414851e-06
 -1.60070836e-06 -3.64097022e-06 -4.49497837e-06 -4.40249946e-06  5.51094020e-01
  4.71352888e-01  6.52302650e-04 -1.31429668e-03 -9.08754314e-04  5.39751881e-03
 -2.05326943e-04  4.15868655e-04  2.87457648e-04 -5.35062979e-04  2.75430728e-05
 -5.48533920e-05 -3.79531415e-05  1.54199922e-05  2.43679631e-05 -5.79319688e-05
  1.86923816e-05  3.13734444e-05  4.23130314e-06 -3.72745238e-05  3.93898607e-05
  2.71261378e-06  3.30827655e-06 -7.19100943e-06 -5.33843624e-06  4.97005696e-05
  1.75635171e-05 -6.76710302e-06 -3.18522812e-06 -1.50746356e-06  4.23127902e-06
 -3.72746724e-05  3.93908249e-05  3.77413801e-06 -4.98305373e-06  5.56231023e-06
 -2.16690537e-07  3.51014607e-08 -4.48480373e-06  1.97203394e-05 -5.07329331e-05
 -2.95880994e-05  5.90942141e-07  7.92887159e-07  4.66278998e-07  9.09941050e-06
 -2.70996601e-06 -2.51930147e-06 -3.06611600e-05  1.45712887e-05  1.20255035e-05
  5.95581138e-06 -4.07795327e-05 -2.70069517e-05 -2.31402854e-06 -1.50458566e-05
 -9.58926044e-06  4.16373504e-06 -3.15270468e-07  4.45754024e-07 -7.28690947e-06
 -2.30105983e-06  3.99179146e-07  5.56251578e-07  3.30268304e-07  2.74417094e-08
  2.24936789e-06  1.17154011e-07 -8.65011313e-06  3.66488909e-06 -6.45867872e-06
 -1.71703662e-05  8.74118861e-07  6.07174292e-06  1.53860660e-05  1.11944752e-06
  4.48678019e-07  1.62728768e-06  2.99528352e-08 -3.13210523e-07  3.99168584e-07
  5.56203215e-07  6.71406208e-08  2.08209225e-06 -9.10965547e-07  1.17527219e-07
 -7.53632336e-06 -5.03144168e-06  6.91761184e-06 -1.71711717e-05 -4.67127404e-07
  1.65413844e-05 -7.17950965e-07 -1.24275084e-06 -5.87442702e-07  2.98025937e-07
 -1.48749387e-06  1.02135339e-07 -6.73927105e-05 -1.21726679e-04  4.96970742e-05
 -6.76562111e-05 -4.81223056e-05  2.70013644e-04  2.96809315e-04 -3.57683669e-04
 -2.57248714e-04  4.45193428e-04  7.19679944e-05 -1.32803829e-04 -9.23308284e-05
 -3.08715468e-05 -1.02165448e-04  1.30874469e-04 -3.59439516e-05 -1.42918454e-04
  5.63466941e-01  4.66567361e-01 -4.67480869e-04  7.02648853e-04  4.95727808e-04
  4.02560545e-03  3.45469001e-04 -5.49152121e-04 -3.85775272e-04 -1.28985664e-03
 -1.71310597e-05  8.83250102e-05  5.88488353e-05  5.67301450e-05  1.45646958e-04
 -1.58798206e-04  5.35763979e-06  1.97362236e-04 -3.94438549e-07  1.55703708e-07
  1.80653545e-06  3.55214580e-07  8.05634025e-08 -9.07255834e-06  6.43213310e-06
 -3.63966103e-06 -2.90172336e-06  5.28997459e-05  1.48557280e-05 -1.52645141e-05
 -1.11604068e-05 -7.93894407e-07 -1.54122951e-06  1.91679086e-06  5.86918893e-08
 -2.01109349e-06  3.34064971e-04  8.60865500e-05  2.74887288e-04 -1.94509504e-05
  2.88367244e-05 -5.75949115e-06  3.45637861e-04  1.37004061e-04  2.19208676e-04
 -3.10345600e-05  2.44216705e-05  1.84610146e-05  3.34065770e-04  8.60820065e-05
  2.74889922e-04 -1.64083043e-05  5.07242846e-06  3.07917227e-05  1.19831164e-01
  3.25156111e-01 -5.34501854e-01 -5.85418361e-01 -3.79039225e-02  1.00134405e-02
 -7.95352282e-04 -1.26513931e-04 -1.60419429e-05 -2.06831936e-03 -3.68139111e-04
 -6.71610402e-05 -2.85994084e-04  7.50847747e-05  7.26198983e-05  6.58735911e-05
 -2.87593370e-04 -1.92451665e-04  1.77717735e-03 -8.36034468e-04 -6.91473817e-04
 -6.24768645e-05  5.87527527e-05 -5.24690286e-05  1.34998438e-04  1.16518630e-04
  1.06564494e-04  9.08347497e-05 -3.21094067e-05  2.20733173e-06 -1.57148695e-04
  2.11793565e-05  4.89844013e-06 -9.69427153e-06 -4.04655367e-05 -9.09411620e-04
  7.77737743e-07  1.16265513e-04  6.61352276e-04  1.15774747e-04  3.63993855e-05
  1.39615865e-05  2.08780873e-05 -1.70615855e-05  1.06564996e-04  9.08352557e-05
 -1.33297802e-05 -1.44459035e-04  6.84502677e-05  2.11807774e-05  8.83210148e-06
 -4.03973951e-05  6.75749377e-06 -9.09414038e-04 -6.74556107e-05  6.49092430e-04
 -1.58222967e-04 -4.76667126e-05 -2.55337556e-05 -7.67607076e-05 -8.24875128e-05
  5.43596866e-06  3.53520446e-05  6.69736781e-05  2.20407720e-04  1.20982383e-05
 -1.04830484e-05 -5.89609243e-04 -1.40468194e-04  1.82521558e-04  1.30356000e-04
  1.37231679e-03  1.31270578e-04 -1.28510537e-03 -8.46411583e-04 -2.11112531e-04
 -5.84686659e-06  1.19244536e-04  2.50029010e-04  7.98334193e-05 -1.19090439e-06
 -8.51348098e-06 -6.66089108e-05  1.15474564e-05  1.30524398e-05  3.95070541e-04
  2.38942708e-04 -6.16564228e-05 -5.99760971e-05 -3.01455918e-03  2.63921581e-03
 -2.04480893e-04 -3.52642377e-04  1.18100168e-05  1.41725911e-04  1.09804129e-05
 -6.83859111e-05  2.06023859e-04  1.18225828e-04  1.38939529e-04 -1.00417211e-04
  1.30899698e-04  9.34603619e-05 -3.77357147e-04  1.25519608e-04 -1.73276609e-06
 -1.15764378e-05  5.74740909e-04  1.95758687e-05 -6.85122520e-04 -4.47040923e-04
 -1.37791422e-05 -4.59260054e-05  8.75407534e-05 -4.17089533e-05 -6.51498244e-05
 -8.06290785e-05  9.44932415e-04 -4.92846007e-04 -8.67367763e-05 -5.23518354e-05
  7.62941024e-05  3.40917266e-05 -4.94329418e-04 -3.14122459e-04  3.35735080e-05
  7.86512831e-05  4.83386127e-05 -8.06286613e-05  9.44932648e-04 -4.92852589e-04
 -9.87431197e-05  4.14274192e-05 -6.79551110e-05 -3.48642130e-04 -9.67707324e-04
  1.92789307e-03  1.21930048e-03 -2.37501526e-04  9.92915125e-04 -3.74431390e-01
 -3.32221647e-02  9.57199226e-03 -7.12046114e-01 -6.33165468e-02  1.81125302e-02
 -4.56921145e-02 -4.03435472e-03  1.18092852e-03  3.61883297e-03  1.96409219e-04