Generated by Psi4
        SP                        DF-MP2                   AUG-CC-PVTZ
Number of atoms                            I                9
Charge                                     I               -1
Multiplicity                               I                1
Number of electrons                        I               58
Number of alpha electrons                  I               29
Number of beta electrons                   I               29
Number of basis functions                  I              349
Number of independent functions            I              349
Atomic numbers                             I   N=           9
          16           8           8           8           6           8
           1           1           1
Nuclear charges                            R   N=           9
  1.60000000e+01  8.00000000e+00  8.00000000e+00  8.00000000e+00  6.00000000e+00
  8.00000000e+00  1.00000000e+00  1.00000000e+00  1.00000000e+00
Current cartesian coordinates              R   N=          27
 -8.30511446e-01  1.20235135e-01  1.47306956e-01 -1.34968404e+00  1.43354038e-01
 -2.60299410e+00 -1.02259553e+00 -2.41108683e+00  1.32617707e+00  2.28984303e+00
  8.12623180e-01  3.37684644e-01  3.81074623e+00 -9.85955464e-01 -9.58232622e-01
 -1.91485845e+00  2.22526599e+00  1.60610151e+00  3.33302542e+00 -1.04504270e+00
 -2.97067617e+00  5.77104728e+00 -3.75970098e-01 -7.24851417e-01  3.56755068e+00
 -2.87664421e+00 -1.53385775e-01
Integer atomic weights                     I   N=           9
          32          16          16          16          12          16
           1           1           1
Real atomic weights                        R   N=           9
  3.19720712e+01  1.59949146e+01  1.59949146e+01  1.59949146e+01  1.20000000e+01
  1.59949146e+01  1.00782503e+00  1.00782503e+00  1.00782503e+00
Number of primitive shells                 I              247
Number of contracted shells                I              113
Pure/Cartesian d shells                    I                0
Pure/Cartesian f shells                    I                0
Highest angular momentum                   I                3
Largest degree of contraction              I               13
Shell types                                I   N=         113
           0           0           0           0           0           1
           1           1           1          -2          -2          -3
           0           1          -2          -3           0           0
           0           0           1           1           1          -2
          -2          -3           0           1          -2          -3
           0           0           0           0           1           1
           1          -2          -2          -3           0           1
          -2          -3           0           0           0           0
           1           1           1          -2          -2          -3
           0           1          -2          -3           0           0
           0           0           1           1           1          -2
          -2          -3           0           1          -2          -3
           0           0           0           0           1           1
           1          -2          -2          -3           0           1
          -2          -3           0           0           0           1
           1          -2           0           1          -2           0
           0           0           1           1          -2           0
           1          -2           0           0           0           1
           1          -2           0           1          -2
Number of primitives per shell             I   N=         113
          13          13          13           1           1           7
           7           1           1           1           1           1
           1           1           1           1           8           8
           1           1           3           1           1           1
           1           1           1           1           1           1
           8           8           1           1           3           1
           1           1           1           1           1           1
           1           1           8           8           1           1
           3           1           1           1           1           1
           1           1           1           1           8           8
           1           1           3           1           1           1
           1           1           1           1           1           1
           8           8           1           1           3           1
           1           1           1           1           1           1
           1           1           3           1           1           1
           1           1           1           1           1           3
           1           1           1           1           1           1
           1           1           3           1           1           1
           1           1           1           1           1
Shell to atom map                          I   N=         113
           1           1           1           1           1           1
           1           1           1           1           1           1
           1           1           1           1           2           2
           2           2           2           2           2           2
           2           2           2           2           2           2
           3           3           3           3           3           3
           3           3           3           3           3           3
           3           3           4           4           4           4
           4           4           4           4           4           4
           4           4           4           4           5           5
           5           5           5           5           5           5
           5           5           5           5           5           5
           6           6           6           6           6           6
           6           6           6           6           6           6
           6           6           7           7           7           7
           7           7           7           7           7           8
           8           8           8           8           8           8
           8           8           9           9           9           9
           9           9           9           9           9
Primitive exponents                        R   N=         247
  3.74100000e+05  5.60500000e+04  1.27600000e+04  3.61500000e+03  1.18300000e+03
  4.28800000e+02  1.67800000e+02  6.94700000e+01  2.98400000e+01  1.27200000e+01
  5.24400000e+00  2.21900000e+00  3.49000000e-01  3.74100000e+05  5.60500000e+04
  1.27600000e+04  3.61500000e+03  1.18300000e+03  4.28800000e+02  1.67800000e+02
  6.94700000e+01  2.98400000e+01  1.27200000e+01  5.24400000e+00  2.21900000e+00
  3.49000000e-01  3.74100000e+05  5.60500000e+04  1.27600000e+04  3.61500000e+03
  1.18300000e+03  4.28800000e+02  1.67800000e+02  6.94700000e+01  2.98400000e+01
  1.27200000e+01  5.24400000e+00  2.21900000e+00  3.49000000e-01  7.76700000e-01
  1.32200000e-01  5.74400000e+02  1.35800000e+02  4.31900000e+01  1.58700000e+01
  6.20800000e+00  2.48300000e+00  3.22900000e-01  5.74400000e+02  1.35800000e+02
  4.31900000e+01  1.58700000e+01  6.20800000e+00  2.48300000e+00  3.22900000e-01
  8.68800000e-01  1.09800000e-01  2.69000000e-01  8.19000000e-01  5.57000000e-01
  4.97000000e-02  3.51000000e-02  1.01000000e-01  2.18000000e-01  1.53300000e+04
  2.29900000e+03  5.22400000e+02  1.47300000e+02  4.75500000e+01  1.67600000e+01
  6.20700000e+00  6.88200000e-01  1.53300000e+04  2.29900000e+03  5.22400000e+02
  1.47300000e+02  4.75500000e+01  1.67600000e+01  6.20700000e+00  6.88200000e-01
  1.75200000e+00  2.38400000e-01  3.44600000e+01  7.74900000e+00  2.28000000e+00
  7.15600000e-01  2.14000000e-01  2.31400000e+00  6.45000000e-01  1.42800000e+00
  7.37600000e-02  5.97400000e-02  2.14000000e-01  5.00000000e-01  1.53300000e+04
  2.29900000e+03  5.22400000e+02  1.47300000e+02  4.75500000e+01  1.67600000e+01
  6.20700000e+00  6.88200000e-01  1.53300000e+04  2.29900000e+03  5.22400000e+02
  1.47300000e+02  4.75500000e+01  1.67600000e+01  6.20700000e+00  6.88200000e-01
  1.75200000e+00  2.38400000e-01  3.44600000e+01  7.74900000e+00  2.28000000e+00
  7.15600000e-01  2.14000000e-01  2.31400000e+00  6.45000000e-01  1.42800000e+00
  7.37600000e-02  5.97400000e-02  2.14000000e-01  5.00000000e-01  1.53300000e+04
  2.29900000e+03  5.22400000e+02  1.47300000e+02  4.75500000e+01  1.67600000e+01
  6.20700000e+00  6.88200000e-01  1.53300000e+04  2.29900000e+03  5.22400000e+02
  1.47300000e+02  4.75500000e+01  1.67600000e+01  6.20700000e+00  6.88200000e-01
  1.75200000e+00  2.38400000e-01  3.44600000e+01  7.74900000e+00  2.28000000e+00
  7.15600000e-01  2.14000000e-01  2.31400000e+00  6.45000000e-01  1.42800000e+00
  7.37600000e-02  5.97400000e-02  2.14000000e-01  5.00000000e-01  8.23600000e+03
  1.23500000e+03  2.80800000e+02  7.92700000e+01  2.55900000e+01  8.99700000e+00
  3.31900000e+00  3.64300000e-01  8.23600000e+03  1.23500000e+03  2.80800000e+02
  7.92700000e+01  2.55900000e+01  8.99700000e+00  3.31900000e+00  3.64300000e-01
  9.05900000e-01  1.28500000e-01  1.87100000e+01  4.13300000e+00  1.20000000e+00
  3.82700000e-01  1.20900000e-01  1.09700000e+00  3.18000000e-01  7.61000000e-01
  4.40200000e-02  3.56900000e-02  1.00000000e-01  2.68000000e-01  1.53300000e+04
  2.29900000e+03  5.22400000e+02  1.47300000e+02  4.75500000e+01  1.67600000e+01
  6.20700000e+00  6.88200000e-01  1.53300000e+04  2.29900000e+03  5.22400000e+02
  1.47300000e+02  4.75500000e+01  1.67600000e+01  6.20700000e+00  6.88200000e-01
  1.75200000e+00  2.38400000e-01  3.44600000e+01  7.74900000e+00  2.28000000e+00
  7.15600000e-01  2.14000000e-01  2.31400000e+00  6.45000000e-01  1.42800000e+00
  7.37600000e-02  5.97400000e-02  2.14000000e-01  5.00000000e-01  3.38700000e+01
  5.09500000e+00  1.15900000e+00  3.25800000e-01  1.02700000e-01  1.40700000e+00
  3.88000000e-01  1.05700000e+00  2.52600000e-02  1.02000000e-01  2.47000000e-01
  3.38700000e+01  5.09500000e+00  1.15900000e+00  3.25800000e-01  1.02700000e-01
  1.40700000e+00  3.88000000e-01  1.05700000e+00  2.52600000e-02  1.02000000e-01
  2.47000000e-01  3.38700000e+01  5.09500000e+00  1.15900000e+00  3.25800000e-01
  1.02700000e-01  1.40700000e+00  3.88000000e-01  1.05700000e+00  2.52600000e-02
  1.02000000e-01  2.47000000e-01
Contraction coefficients                   R   N=         247
  5.42092684e-05  4.20818270e-04  2.20678738e-03  9.19177771e-03  3.21094974e-02
  9.46600377e-02  2.23610483e-01  3.74360325e-01  3.29079277e-01  8.46964074e-02
  4.40812524e-04  1.64812615e-03  3.01279703e-04 -1.57790228e-05 -1.22365697e-04
 -6.44045337e-04 -2.68924836e-03 -9.56941495e-03 -2.91750327e-02 -7.58238087e-02
 -1.54211865e-01 -2.05508406e-01  8.62675111e-03  5.44021769e-01  5.70956375e-01
 -9.66802529e-03  6.82381628e-06  5.28789062e-05  2.78673749e-04  1.16240741e-03
  4.14999189e-03  1.26650737e-02  3.32945444e-02  6.87490087e-02  9.61017734e-02
 -5.67012320e-03 -3.20764819e-01 -5.98947641e-01  1.12010774e+00  1.00000000e+00
  1.00000000e+00  2.49692298e-03  1.98707511e-02  9.12549164e-02  2.62462200e-01
  4.47290817e-01  3.65836568e-01 -5.18399280e-03 -1.06402392e-03 -8.47444871e-03
 -3.99195571e-02 -1.17571604e-01 -2.12591327e-01 -1.66354910e-01  9.77014803e-01
  1.00000000e+00  1.00000000e+00  1.00000000e+00  1.00000000e+00  1.00000000e+00
  1.00000000e+00  1.00000000e+00  1.00000000e+00  1.00000000e+00  5.20198307e-04
  4.02334478e-03  2.07290833e-02  8.10823271e-02  2.36226352e-01  4.43518209e-01
  3.58670589e-01 -8.34979724e-03 -1.97236012e-04 -1.53501070e-03 -7.95118391e-03
 -3.21134529e-02 -1.00269643e-01 -2.34047112e-01 -3.01410928e-01  1.03491965e+00
  1.00000000e+00  1.00000000e+00  4.11634896e-02  2.57762836e-01  8.02419274e-01
  1.00000000e+00  1.00000000e+00  1.00000000e+00  1.00000000e+00  1.00000000e+00
  1.00000000e+00  1.00000000e+00  1.00000000e+00  1.00000000e+00  5.20198307e-04
  4.02334478e-03  2.07290833e-02  8.10823271e-02  2.36226352e-01  4.43518209e-01
  3.58670589e-01 -8.34979724e-03 -1.97236012e-04 -1.53501070e-03 -7.95118391e-03
 -3.21134529e-02 -1.00269643e-01 -2.34047112e-01 -3.01410928e-01  1.03491965e+00
  1.00000000e+00  1.00000000e+00  4.11634896e-02  2.57762836e-01  8.02419274e-01
  1.00000000e+00  1.00000000e+00  1.00000000e+00  1.00000000e+00  1.00000000e+00
  1.00000000e+00  1.00000000e+00  1.00000000e+00  1.00000000e+00  5.20198307e-04
  4.02334478e-03  2.07290833e-02  8.10823271e-02  2.36226352e-01  4.43518209e-01
  3.58670589e-01 -8.34979724e-03 -1.97236012e-04 -1.53501070e-03 -7.95118391e-03
 -3.21134529e-02 -1.00269643e-01 -2.34047112e-01 -3.01410928e-01  1.03491965e+00
  1.00000000e+00  1.00000000e+00  4.11634896e-02  2.57762836e-01  8.02419274e-01
  1.00000000e+00  1.00000000e+00  1.00000000e+00  1.00000000e+00  1.00000000e+00
  1.00000000e+00  1.00000000e+00  1.00000000e+00  1.00000000e+00  5.42430189e-04
  4.19642790e-03  2.15409141e-02  8.36149496e-02  2.39871619e-01  4.43751820e-01
  3.53579696e-01 -9.17636608e-03 -1.96392234e-04 -1.52595027e-03 -7.89044903e-03
 -3.15148705e-02 -9.69100083e-02 -2.20541526e-01 -2.96069113e-01  1.04050343e+00
  1.00000000e+00  1.00000000e+00  3.94263872e-02  2.44088985e-01  8.15492009e-01
  1.00000000e+00  1.00000000e+00  1.00000000e+00  1.00000000e+00  1.00000000e+00
  1.00000000e+00  1.00000000e+00  1.00000000e+00  1.00000000e+00  5.20198307e-04
  4.02334478e-03  2.07290833e-02  8.10823271e-02  2.36226352e-01  4.43518209e-01
  3.58670589e-01 -8.34979724e-03 -1.97236012e-04 -1.53501070e-03 -7.95118391e-03
 -3.21134529e-02 -1.00269643e-01 -2.34047112e-01 -3.01410928e-01  1.03491965e+00
  1.00000000e+00  1.00000000e+00  4.11634896e-02  2.57762836e-01  8.02419274e-01
  1.00000000e+00  1.00000000e+00  1.00000000e+00  1.00000000e+00  1.00000000e+00
  1.00000000e+00  1.00000000e+00  1.00000000e+00  1.00000000e+00  2.54948632e-02
  1.90362766e-01  8.52162022e-01  1.00000000e+00  1.00000000e+00  1.00000000e+00
  1.00000000e+00  1.00000000e+00  1.00000000e+00  1.00000000e+00  1.00000000e+00
  2.54948632e-02  1.90362766e-01  8.52162022e-01  1.00000000e+00  1.00000000e+00
  1.00000000e+00  1.00000000e+00  1.00000000e+00  1.00000000e+00  1.00000000e+00
  1.00000000e+00  2.54948632e-02  1.90362766e-01  8.52162022e-01  1.00000000e+00
  1.00000000e+00  1.00000000e+00  1.00000000e+00  1.00000000e+00  1.00000000e+00
  1.00000000e+00  1.00000000e+00
Coordinates of each shell                  R   N=         339
 -8.30511446e-01  1.20235135e-01  1.47306956e-01 -8.30511446e-01  1.20235135e-01
  1.47306956e-01 -8.30511446e-01  1.20235135e-01  1.47306956e-01 -8.30511446e-01
  1.20235135e-01  1.47306956e-01 -8.30511446e-01  1.20235135e-01  1.47306956e-01
 -8.30511446e-01  1.20235135e-01  1.47306956e-01 -8.30511446e-01  1.20235135e-01
  1.47306956e-01 -8.30511446e-01  1.20235135e-01  1.47306956e-01 -8.30511446e-01
  1.20235135e-01  1.47306956e-01 -8.30511446e-01  1.20235135e-01  1.47306956e-01
 -8.30511446e-01  1.20235135e-01  1.47306956e-01 -8.30511446e-01  1.20235135e-01
  1.47306956e-01 -8.30511446e-01  1.20235135e-01  1.47306956e-01 -8.30511446e-01
  1.20235135e-01  1.47306956e-01 -8.30511446e-01  1.20235135e-01  1.47306956e-01
 -8.30511446e-01  1.20235135e-01  1.47306956e-01 -1.34968404e+00  1.43354038e-01
 -2.60299410e+00 -1.34968404e+00  1.43354038e-01 -2.60299410e+00 -1.34968404e+00
  1.43354038e-01 -2.60299410e+00 -1.34968404e+00  1.43354038e-01 -2.60299410e+00
 -1.34968404e+00  1.43354038e-01 -2.60299410e+00 -1.34968404e+00  1.43354038e-01
 -2.60299410e+00 -1.34968404e+00  1.43354038e-01 -2.60299410e+00 -1.34968404e+00
  1.43354038e-01 -2.60299410e+00 -1.34968404e+00  1.43354038e-01 -2.60299410e+00
 -1.34968404e+00  1.43354038e-01 -2.60299410e+00 -1.34968404e+00  1.43354038e-01
 -2.60299410e+00 -1.34968404e+00  1.43354038e-01 -2.60299410e+00 -1.34968404e+00
  1.43354038e-01 -2.60299410e+00 -1.34968404e+00  1.43354038e-01 -2.60299410e+00
 -1.02259553e+00 -2.41108683e+00  1.32617707e+00 -1.02259553e+00 -2.41108683e+00
  1.32617707e+00 -1.02259553e+00 -2.41108683e+00  1.32617707e+00 -1.02259553e+00
 -2.41108683e+00  1.32617707e+00 -1.02259553e+00 -2.41108683e+00  1.32617707e+00
 -1.02259553e+00 -2.41108683e+00  1.32617707e+00 -1.02259553e+00 -2.41108683e+00
  1.32617707e+00 -1.02259553e+00 -2.41108683e+00  1.32617707e+00 -1.02259553e+00
 -2.41108683e+00  1.32617707e+00 -1.02259553e+00 -2.41108683e+00  1.32617707e+00
 -1.02259553e+00 -2.41108683e+00  1.32617707e+00 -1.02259553e+00 -2.41108683e+00
  1.32617707e+00 -1.02259553e+00 -2.41108683e+00  1.32617707e+00 -1.02259553e+00
 -2.41108683e+00  1.32617707e+00  2.28984303e+00  8.12623180e-01  3.37684644e-01
  2.28984303e+00  8.12623180e-01  3.37684644e-01  2.28984303e+00  8.12623180e-01
  3.37684644e-01  2.28984303e+00  8.12623180e-01  3.37684644e-01  2.28984303e+00
  8.12623180e-01  3.37684644e-01  2.28984303e+00  8.12623180e-01  3.37684644e-01
  2.28984303e+00  8.12623180e-01  3.37684644e-01  2.28984303e+00  8.12623180e-01
  3.37684644e-01  2.28984303e+00  8.12623180e-01  3.37684644e-01  2.28984303e+00
  8.12623180e-01  3.37684644e-01  2.28984303e+00  8.12623180e-01  3.37684644e-01
  2.28984303e+00  8.12623180e-01  3.37684644e-01  2.28984303e+00  8.12623180e-01
  3.37684644e-01  2.28984303e+00  8.12623180e-01  3.37684644e-01  3.81074623e+00
 -9.85955464e-01 -9.58232622e-01  3.81074623e+00 -9.85955464e-01 -9.58232622e-01
  3.81074623e+00 -9.85955464e-01 -9.58232622e-01  3.81074623e+00 -9.85955464e-01
 -9.58232622e-01  3.81074623e+00 -9.85955464e-01 -9.58232622e-01  3.81074623e+00
 -9.85955464e-01 -9.58232622e-01  3.81074623e+00 -9.85955464e-01 -9.58232622e-01
  3.81074623e+00 -9.85955464e-01 -9.58232622e-01  3.81074623e+00 -9.85955464e-01
 -9.58232622e-01  3.81074623e+00 -9.85955464e-01 -9.58232622e-01  3.81074623e+00
 -9.85955464e-01 -9.58232622e-01  3.81074623e+00 -9.85955464e-01 -9.58232622e-01
  3.81074623e+00 -9.85955464e-01 -9.58232622e-01  3.81074623e+00 -9.85955464e-01
 -9.58232622e-01 -1.91485845e+00  2.22526599e+00  1.60610151e+00 -1.91485845e+00
  2.22526599e+00  1.60610151e+00 -1.91485845e+00  2.22526599e+00  1.60610151e+00
 -1.91485845e+00  2.22526599e+00  1.60610151e+00 -1.91485845e+00  2.22526599e+00
  1.60610151e+00 -1.91485845e+00  2.22526599e+00  1.60610151e+00 -1.91485845e+00
  2.22526599e+00  1.60610151e+00 -1.91485845e+00  2.22526599e+00  1.60610151e+00
 -1.91485845e+00  2.22526599e+00  1.60610151e+00 -1.91485845e+00  2.22526599e+00
  1.60610151e+00 -1.91485845e+00  2.22526599e+00  1.60610151e+00 -1.91485845e+00
  2.22526599e+00  1.60610151e+00 -1.91485845e+00  2.22526599e+00  1.60610151e+00
 -1.91485845e+00  2.22526599e+00  1.60610151e+00  3.33302542e+00 -1.04504270e+00
 -2.97067617e+00  3.33302542e+00 -1.04504270e+00 -2.97067617e+00  3.33302542e+00
 -1.04504270e+00 -2.97067617e+00  3.33302542e+00 -1.04504270e+00 -2.97067617e+00
  3.33302542e+00 -1.04504270e+00 -2.97067617e+00  3.33302542e+00 -1.04504270e+00
 -2.97067617e+00  3.33302542e+00 -1.04504270e+00 -2.97067617e+00  3.33302542e+00
 -1.04504270e+00 -2.97067617e+00  3.33302542e+00 -1.04504270e+00 -2.97067617e+00
  5.77104728e+00 -3.75970098e-01 -7.24851417e-01  5.77104728e+00 -3.75970098e-01
 -7.24851417e-01  5.77104728e+00 -3.75970098e-01 -7.24851417e-01  5.77104728e+00
 -3.75970098e-01 -7.24851417e-01  5.77104728e+00 -3.75970098e-01 -7.24851417e-01
  5.77104728e+00 -3.75970098e-01 -7.24851417e-01  5.77104728e+00 -3.75970098e-01
 -7.24851417e-01  5.77104728e+00 -3.75970098e-01 -7.24851417e-01  5.77104728e+00
 -3.75970098e-01 -7.24851417e-01  3.56755068e+00 -2.87664421e+00 -1.53385775e-01
  3.56755068e+00 -2.87664421e+00 -1.53385775e-01  3.56755068e+00 -2.87664421e+00
 -1.53385775e-01  3.56755068e+00 -2.87664421e+00 -1.53385775e-01  3.56755068e+00
 -2.87664421e+00 -1.53385775e-01  3.56755068e+00 -2.87664421e+00 -1.53385775e-01
  3.56755068e+00 -2.87664421e+00 -1.53385775e-01  3.56755068e+00 -2.87664421e+00
 -1.53385775e-01  3.56755068e+00 -2.87664421e+00 -1.53385775e-01
Total Energy                               R     -7.381216099977706e+02
Alpha Orbital Energies                     R   N=         349
 -9.20379182e+01 -2.04232446e+01 -2.03562417e+01 -2.03562166e+01 -2.03558259e+01
 -1.11358272e+01 -8.99470194e+00 -6.68133410e+00 -6.67945186e+00 -6.67937437e+00
 -1.30240937e+00 -1.18616629e+00 -1.13561831e+00 -1.13211796e+00 -7.94037386e-01
 -6.35274414e-01 -5.36595515e-01 -5.00554749e-01 -4.94525117e-01 -4.61456306e-01
 -4.42208614e-01 -3.93034254e-01 -3.36191527e-01 -3.34825220e-01 -3.24070588e-01
 -3.05188556e-01 -2.88685220e-01 -2.77572981e-01 -2.54577463e-01  1.18192506e-01
  1.39219830e-01  1.42182576e-01  1.83016188e-01  2.08442166e-01  2.14255303e-01
  2.14836517e-01  2.26405815e-01  2.35488923e-01  2.62648403e-01  2.78422195e-01
  2.93560868e-01  3.08314859e-01  3.22841168e-01  3.36119268e-01  3.41710813e-01
  3.43809035e-01  3.61072620e-01  3.80037349e-01  3.84575043e-01  3.91095440e-01
  3.97661447e-01  4.04381628e-01  4.07835665e-01  4.19158678e-01  4.40420083e-01
  4.40692551e-01  4.59208308e-01  4.69406067e-01  4.71884440e-01  4.79077950e-01
  4.83057363e-01  5.01362367e-01  5.06356306e-01  5.13096473e-01  5.19941507e-01
  5.35862555e-01  5.49601762e-01  5.67819157e-01  5.73891194e-01  5.81711754e-01
  5.90400393e-01  6.03600584e-01  6.04515191e-01  6.12390737e-01  6.18428039e-01
  6.43485853e-01  6.46310047e-01  6.58698684e-01  6.98634992e-01  7.00685936e-01
  7.05358557e-01  7.12476716e-01  7.39147794e-01  8.00713877e-01  8.19931950e-01
  8.22828850e-01  8.37594822e-01  8.49477926e-01  8.80586096e-01  9.16149523e-01
  9.21762325e-01  9.29343164e-01  9.56530921e-01  9.58362937e-01  9.70963451e-01
  9.75924629e-01  9.92399584e-01  1.00172152e+00  1.02127175e+00  1.03012283e+00
  1.03313055e+00  1.04279876e+00  1.04585008e+00  1.06077644e+00  1.06897292e+00
  1.07957986e+00  1.09065976e+00  1.09352967e+00  1.10456610e+00  1.12413251e+00
  1.14361151e+00  1.16102542e+00  1.16276415e+00  1.17683153e+00  1.17975306e+00
  1.19094930e+00  1.19554681e+00  1.20769988e+00  1.22521950e+00  1.22739605e+00
  1.25782453e+00  1.26602471e+00  1.28607571e+00  1.28802610e+00  1.31090646e+00
  1.31889529e+00  1.33732183e+00  1.34348278e+00  1.36660453e+00  1.37783626e+00
  1.39269448e+00  1.40289782e+00  1.40843533e+00  1.42842768e+00  1.45101921e+00
  1.45121582e+00  1.49310160e+00  1.49407315e+00  1.52795297e+00  1.53861380e+00
  1.54088845e+00  1.58276895e+00  1.59911045e+00  1.62447880e+00  1.62670309e+00
  1.66268830e+00  1.67514068e+00  1.69086105e+00  1.72219109e+00  1.72494168e+00
  1.74211042e+00  1.75563571e+00  1.76656626e+00  1.78483224e+00  1.79657479e+00
  1.82880792e+00  1.84297852e+00  1.84699197e+00  1.87795962e+00  1.88180959e+00
  1.89212604e+00  1.91646761e+00  1.96871658e+00  2.01388774e+00  2.06675352e+00
  2.06773261e+00  2.09638931e+00  2.14271494e+00  2.19020081e+00  2.23724114e+00
  2.27256962e+00  2.28126926e+00  2.28963666e+00  2.30410749e+00  2.32029737e+00
  2.33939817e+00  2.36717459e+00  2.37781731e+00  2.39202003e+00  2.41025693e+00
  2.41620330e+00  2.42103774e+00  2.43748803e+00  2.44095724e+00  2.44346309e+00
  2.47215454e+00  2.49175443e+00  2.53323289e+00  2.53921956e+00  2.54345908e+00
  2.55516661e+00  2.57705015e+00  2.60439600e+00  2.61713497e+00  2.67015308e+00
  2.67147620e+00  2.69659113e+00  2.71016696e+00  2.71325784e+00  2.73696354e+00
  2.74057140e+00  2.75473330e+00  2.75701781e+00  2.77430877e+00  2.79819282e+00
  2.80739426e+00  2.85079976e+00  2.87136798e+00  2.88254194e+00  2.90118593e+00
  2.90657276e+00  2.92482808e+00  2.96624820e+00  3.01420290e+00  3.03245658e+00
  3.03937247e+00  3.08765481e+00  3.11442447e+00  3.12288540e+00  3.12983700e+00
  3.15387954e+00  3.23415046e+00  3.27091217e+00  3.27776898e+00  3.29324344e+00
  3.34129144e+00  3.41241981e+00  3.45802298e+00  3.49183740e+00  3.49869494e+00
  3.50928286e+00  3.54160686e+00  3.55536651e+00  3.55809349e+00  3.57982834e+00
  3.65485596e+00  3.70766579e+00  3.72890340e+00  3.74530340e+00  3.79064914e+00
  3.79207192e+00  3.80134266e+00  3.82237247e+00  3.83727737e+00  3.89492940e+00
  3.95196947e+00  3.95546202e+00  4.00680920e+00  4.00862340e+00  4.04529917e+00
  4.05059509e+00  4.13357314e+00  4.16349462e+00  4.20699561e+00  4.26605206e+00
  4.26911161e+00  4.31951769e+00  4.39061246e+00  4.39746373e+00  4.43828190e+00
  4.54113535e+00  4.59252539e+00  4.71204468e+00  4.71721597e+00  4.79113038e+00
  4.81730218e+00  4.84351574e+00  4.88683465e+00  4.90621483e+00  4.91481239e+00
  4.98421081e+00  5.03029904e+00  5.05281547e+00  5.08150978e+00  5.09054712e+00
  5.16556943e+00  5.22477611e+00  5.31423641e+00  5.34778018e+00  5.44696535e+00
  5.52583621e+00  5.57734483e+00  5.69362876e+00  5.72949278e+00  5.77350208e+00
  5.77947625e+00  5.96943807e+00  5.99973970e+00  6.03021444e+00  6.13812055e+00
  6.20866564e+00  6.26795463e+00  6.49577644e+00  6.78070219e+00  6.78254685e+00
  6.82437259e+00  6.83320282e+00  6.83691812e+00  6.88060963e+00  6.88370552e+00
  6.90776970e+00  6.95271102e+00  7.00091507e+00  7.01921049e+00  7.04940730e+00
  7.05011635e+00  7.06053754e+00  7.07627276e+00  7.08716148e+00  7.10836423e+00
  7.11688496e+00  7.12410401e+00  7.15446033e+00  7.16439686e+00  7.20143701e+00
  7.21811805e+00  7.24650998e+00  7.26065230e+00  7.33613384e+00  7.34342784e+00
  7.35031542e+00  7.37800173e+00  7.39526813e+00  7.40105139e+00  7.44941999e+00
  7.47351063e+00  7.48062733e+00  7.51283234e+00  7.52455718e+00  7.59839974e+00
  7.61147556e+00  7.72459197e+00  7.78071304e+00  7.78216122e+00  7.81294959e+00
  7.83408682e+00  7.87282760e+00  7.87458980e+00  7.93506364e+00  7.97404949e+00
  8.05770000e+00  8.24754930e+00  8.33114638e+00  1.22826246e+01  1.25634386e+01
  1.27008995e+01  1.37392108e+01  1.48677414e+01  1.78048387e+01
Alpha MO coefficients                      R   N=      121801
  1.00005169e+00 -2.63006947e-04 -2.58318366e-04 -5.80595906e-04  7.99723918e-04
  7.05539375e-05  1.27310863e-05  2.40338649e-06  9.47636829e-05  1.67873583e-05
  3.02501163e-06 -3.03801067e-05 -6.36511539e-06 -1.60913285e-06  9.31255577e-05
 -2.69062336e-06 -9.50211022e-06 -2.03273751e-05  3.52942956e-06  1.62780461e-05
  1.87106088e-05  1.36505864e-05 -7.30041028e-06  1.50021901e-06 -1.61698349e-06
  1.32550103e-05  5.47335129e-06  1.38166633e-05  1.11070888e-06 -2.19552938e-06
  7.62883235e-06  7.44957609e-06 -3.57846404e-06 -4.01989008e-06  1.97577472e-04
  1.80254889e-05 -5.06679688e-06 -4.79453774e-06 -6.15869282e-06  5.93057515e-06
 -6.25818949e-06  1.42298087e-05  1.17265255e-05 -7.76042831e-05 -4.03607529e-05
  6.78650018e-06 -4.52323914e-05 -2.12049330e-05  4.66915720e-05  3.68233079e-05
  1.99764205e-06  9.67258975e-07 -4.78277654e-06 -1.76145089e-04 -2.20561935e-07
  4.30386091e-08 -4.64538601e-06 -3.84710426e-06 -2.04452155e-07 -4.35736020e-06
  5.15759557e-06  8.46596767e-06 -5.24220394e-05 -3.85303914e-06 -1.26212503e-06
 -2.06396776e-07 -6.72776870e-08  1.51603578e-07  1.42866471e-05  3.92195909e-06
  8.09097588e-07 -2.01080261e-07 -5.21512376e-07  2.48429376e-06  7.39522932e-07
 -5.29929269e-07  3.02766906e-07  1.49803346e-07  1.02845819e-06  9.27366945e-07
 -7.91427422e-05 -2.29515630e-06  2.16637736e-06 -1.01908425e-05  3.10233293e-06
  1.46811932e-05  6.47129562e-06 -3.97564833e-06 -2.76938939e-06  1.28523706e-05
  8.50729324e-06  1.60549971e-06  5.70413142e-07 -2.42448166e-07 -3.25202226e-06
 -3.03327399e-06  1.99761662e-06  9.67205291e-07 -4.78280245e-06 -1.76144837e-04
  3.25833465e-07 -4.22421470e-06  1.91836737e-06 -3.31777581e-06 -4.33791497e-06
  2.00065992e-06  1.18536380e-05 -4.38281919e-05  2.80159192e-05  1.05413891e-06
  3.47182053e-07  2.48545378e-06  2.99455122e-06 -3.63890829e-07 -3.68716163e-06
 -8.84891217e-07 -8.91126477e-06 -1.12347724e-05  6.71114980e-07  1.08741450e-06
 -1.11878669e-06 -1.76045984e-07  2.35486959e-06 -3.38729160e-07  2.66984825e-07
 -9.13654495e-07 -7.91425290e-05 -9.21919296e-07 -8.55716779e-06  6.30376865e-06
 -3.86743606e-07 -7.97078565e-06  1.80326236e-06 -9.73373305e-06  1.13506260e-05
  6.88794044e-06  3.33019909e-06 -1.16386095e-06  7.78925237e-06 -1.48370928e-06
 -4.74134654e-06 -1.07263398e-05  1.19783900e-05  2.06975453e-05  1.35802214e-07
 -1.86975541e-04  8.99680530e-07 -3.97342099e-07 -3.33228858e-07 -1.57586587e-06
  5.29628059e-06  3.57448339e-06  2.76604271e-04  2.54975454e-05 -6.45015073e-06
  4.52573921e-07  1.16983432e-07  3.10479838e-07 -1.06520678e-06 -3.22366428e-08
  4.41822068e-06 -1.00595062e-06 -2.28399327e-06 -5.11022404e-06 -3.36097253e-06
 -1.06698452e-06 -8.88057571e-07 -4.77792124e-07  1.16009125e-06 -1.97595735e-06
  1.94211514e-06  2.62825713e-06 -9.65163945e-05  2.64816853e-05  1.55258238e-05
  7.88905813e-06  1.16963462e-05 -3.55389080e-05 -4.14447610e-06 -6.19055660e-06
 -5.80175412e-05  4.79445861e-06 -3.41003675e-07  2.58474844e-06 -7.62189071e-06
  8.44124575e-06 -2.72848446e-06 -1.24037985e-05 -6.71007253e-06 -1.37385765e-05
 -3.93409361e-06 -2.29183127e-04  2.24136814e-06 -8.25966434e-08 -2.40288917e-07
  4.63557399e-06 -1.40335056e-05 -9.50966569e-06  1.15384512e-05 -9.46177931e-05
 -6.24745670e-05  4.57405055e-07  7.33609168e-07 -2.93162252e-07 -7.08721046e-07
  9.03959278e-07 -2.10865391e-05 -1.47910488e-05 -5.35506897e-06  4.41376306e-05
 -1.27107880e-05 -5.42107145e-07  1.46571062e-06 -1.03038286e-06  3.05062983e-06
 -3.69832176e-07 -2.24865995e-06  3.16234700e-06 -2.27392045e-05  7.92993146e-06
 -1.71248925e-05 -1.17934273e-05 -1.24634175e-06  5.03437324e-06  3.47075231e-07
  4.00961218e-07  8.04771711e-06  6.53333924e-06  2.28781924e-06 -1.27592970e-06
  8.34675789e-06 -1.01568186e-05  5.28026810e-06  2.30304304e-06  2.24656355e-06
  1.37882518e-06 -4.98887359e-06 -1.76002889e-04 -1.16189763e-06  3.90892381e-06