Generated by Psi4
        SP                        DF-MP2                   AUG-CC-PVTZ
Number of atoms                            I                7
Charge                                     I               -1
Multiplicity                               I                1
Number of electrons                        I               32
Number of alpha electrons                  I               16
Number of beta electrons                   I               16
Number of basis functions                  I              253
Number of independent functions            I              253
Atomic numbers                             I   N=           7
           6           6           8           8           1           1
           1
Nuclear charges                            R   N=           7
  6.00000000e+00  6.00000000e+00  8.00000000e+00  8.00000000e+00  1.00000000e+00
  1.00000000e+00  1.00000000e+00
Current cartesian coordinates              R   N=          21
 -2.68002005e+00 -3.85821812e-01 -1.05839554e-01  2.33839784e-01  4.54953555e-02
  7.82011922e-03  9.65586654e-01  2.30456514e+00 -2.20777780e-01  1.50956256e+00
 -1.94905980e+00  3.18553774e-01 -3.70411850e+00  1.38909158e+00 -3.77555986e-01
 -3.13300501e+00 -1.68822120e+00 -1.65143927e+00 -3.31904136e+00 -1.29078929e+00
  1.64431989e+00
Integer atomic weights                     I   N=           7
          12          12          16          16           1           1
           1
Real atomic weights                        R   N=           7
  1.20000000e+01  1.20000000e+01  1.59949146e+01  1.59949146e+01  1.00782503e+00
  1.00782503e+00  1.00782503e+00
Number of primitive shells                 I              153
Number of contracted shells                I               83
Pure/Cartesian d shells                    I                0
Pure/Cartesian f shells                    I                0
Highest angular momentum                   I                3
Largest degree of contraction              I                8
Shell types                                I   N=          83
           0           0           0           0           1           1
           1          -2          -2          -3           0           1
          -2          -3           0           0           0           0
           1           1           1          -2          -2          -3
           0           1          -2          -3           0           0
           0           0           1           1           1          -2
          -2          -3           0           1          -2          -3
           0           0           0           0           1           1
           1          -2          -2          -3           0           1
          -2          -3           0           0           0           1
           1          -2           0           1          -2           0
           0           0           1           1          -2           0
           1          -2           0           0           0           1
           1          -2           0           1          -2
Number of primitives per shell             I   N=          83
           8           8           1           1           3           1
           1           1           1           1           1           1
           1           1           8           8           1           1
           3           1           1           1           1           1
           1           1           1           1           8           8
           1           1           3           1           1           1
           1           1           1           1           1           1
           8           8           1           1           3           1
           1           1           1           1           1           1
           1           1           3           1           1           1
           1           1           1           1           1           3
           1           1           1           1           1           1
           1           1           3           1           1           1
           1           1           1           1           1
Shell to atom map                          I   N=          83
           1           1           1           1           1           1
           1           1           1           1           1           1
           1           1           2           2           2           2
           2           2           2           2           2           2
           2           2           2           2           3           3
           3           3           3           3           3           3
           3           3           3           3           3           3
           4           4           4           4           4           4
           4           4           4           4           4           4
           4           4           5           5           5           5
           5           5           5           5           5           6
           6           6           6           6           6           6
           6           6           7           7           7           7
           7           7           7           7           7
Primitive exponents                        R   N=         153
  8.23600000e+03  1.23500000e+03  2.80800000e+02  7.92700000e+01  2.55900000e+01
  8.99700000e+00  3.31900000e+00  3.64300000e-01  8.23600000e+03  1.23500000e+03
  2.80800000e+02  7.92700000e+01  2.55900000e+01  8.99700000e+00  3.31900000e+00
  3.64300000e-01  9.05900000e-01  1.28500000e-01  1.87100000e+01  4.13300000e+00
  1.20000000e+00  3.82700000e-01  1.20900000e-01  1.09700000e+00  3.18000000e-01
  7.61000000e-01  4.40200000e-02  3.56900000e-02  1.00000000e-01  2.68000000e-01
  8.23600000e+03  1.23500000e+03  2.80800000e+02  7.92700000e+01  2.55900000e+01
  8.99700000e+00  3.31900000e+00  3.64300000e-01  8.23600000e+03  1.23500000e+03
  2.80800000e+02  7.92700000e+01  2.55900000e+01  8.99700000e+00  3.31900000e+00
  3.64300000e-01  9.05900000e-01  1.28500000e-01  1.87100000e+01  4.13300000e+00
  1.20000000e+00  3.82700000e-01  1.20900000e-01  1.09700000e+00  3.18000000e-01
  7.61000000e-01  4.40200000e-02  3.56900000e-02  1.00000000e-01  2.68000000e-01
  1.53300000e+04  2.29900000e+03  5.22400000e+02  1.47300000e+02  4.75500000e+01
  1.67600000e+01  6.20700000e+00  6.88200000e-01  1.53300000e+04  2.29900000e+03
  5.22400000e+02  1.47300000e+02  4.75500000e+01  1.67600000e+01  6.20700000e+00
  6.88200000e-01  1.75200000e+00  2.38400000e-01  3.44600000e+01  7.74900000e+00
  2.28000000e+00  7.15600000e-01  2.14000000e-01  2.31400000e+00  6.45000000e-01
  1.42800000e+00  7.37600000e-02  5.97400000e-02  2.14000000e-01  5.00000000e-01
  1.53300000e+04  2.29900000e+03  5.22400000e+02  1.47300000e+02  4.75500000e+01
  1.67600000e+01  6.20700000e+00  6.88200000e-01  1.53300000e+04  2.29900000e+03
  5.22400000e+02  1.47300000e+02  4.75500000e+01  1.67600000e+01  6.20700000e+00
  6.88200000e-01  1.75200000e+00  2.38400000e-01  3.44600000e+01  7.74900000e+00
  2.28000000e+00  7.15600000e-01  2.14000000e-01  2.31400000e+00  6.45000000e-01
  1.42800000e+00  7.37600000e-02  5.97400000e-02  2.14000000e-01  5.00000000e-01
  3.38700000e+01  5.09500000e+00  1.15900000e+00  3.25800000e-01  1.02700000e-01
  1.40700000e+00  3.88000000e-01  1.05700000e+00  2.52600000e-02  1.02000000e-01
  2.47000000e-01  3.38700000e+01  5.09500000e+00  1.15900000e+00  3.25800000e-01
  1.02700000e-01  1.40700000e+00  3.88000000e-01  1.05700000e+00  2.52600000e-02
  1.02000000e-01  2.47000000e-01  3.38700000e+01  5.09500000e+00  1.15900000e+00
  3.25800000e-01  1.02700000e-01  1.40700000e+00  3.88000000e-01  1.05700000e+00
  2.52600000e-02  1.02000000e-01  2.47000000e-01
Contraction coefficients                   R   N=         153
  5.42430189e-04  4.19642790e-03  2.15409141e-02  8.36149496e-02  2.39871619e-01
  4.43751820e-01  3.53579696e-01 -9.17636608e-03 -1.96392234e-04 -1.52595027e-03
 -7.89044903e-03 -3.15148705e-02 -9.69100083e-02 -2.20541526e-01 -2.96069113e-01
  1.04050343e+00  1.00000000e+00  1.00000000e+00  3.94263872e-02  2.44088985e-01
  8.15492009e-01  1.00000000e+00  1.00000000e+00  1.00000000e+00  1.00000000e+00
  1.00000000e+00  1.00000000e+00  1.00000000e+00  1.00000000e+00  1.00000000e+00
  5.42430189e-04  4.19642790e-03  2.15409141e-02  8.36149496e-02  2.39871619e-01
  4.43751820e-01  3.53579696e-01 -9.17636608e-03 -1.96392234e-04 -1.52595027e-03
 -7.89044903e-03 -3.15148705e-02 -9.69100083e-02 -2.20541526e-01 -2.96069113e-01
  1.04050343e+00  1.00000000e+00  1.00000000e+00  3.94263872e-02  2.44088985e-01
  8.15492009e-01  1.00000000e+00  1.00000000e+00  1.00000000e+00  1.00000000e+00
  1.00000000e+00  1.00000000e+00  1.00000000e+00  1.00000000e+00  1.00000000e+00
  5.20198307e-04  4.02334478e-03  2.07290833e-02  8.10823271e-02  2.36226352e-01
  4.43518209e-01  3.58670589e-01 -8.34979724e-03 -1.97236012e-04 -1.53501070e-03
 -7.95118391e-03 -3.21134529e-02 -1.00269643e-01 -2.34047112e-01 -3.01410928e-01
  1.03491965e+00  1.00000000e+00  1.00000000e+00  4.11634896e-02  2.57762836e-01
  8.02419274e-01  1.00000000e+00  1.00000000e+00  1.00000000e+00  1.00000000e+00
  1.00000000e+00  1.00000000e+00  1.00000000e+00  1.00000000e+00  1.00000000e+00
  5.20198307e-04  4.02334478e-03  2.07290833e-02  8.10823271e-02  2.36226352e-01
  4.43518209e-01  3.58670589e-01 -8.34979724e-03 -1.97236012e-04 -1.53501070e-03
 -7.95118391e-03 -3.21134529e-02 -1.00269643e-01 -2.34047112e-01 -3.01410928e-01
  1.03491965e+00  1.00000000e+00  1.00000000e+00  4.11634896e-02  2.57762836e-01
  8.02419274e-01  1.00000000e+00  1.00000000e+00  1.00000000e+00  1.00000000e+00
  1.00000000e+00  1.00000000e+00  1.00000000e+00  1.00000000e+00  1.00000000e+00
  2.54948632e-02  1.90362766e-01  8.52162022e-01  1.00000000e+00  1.00000000e+00
  1.00000000e+00  1.00000000e+00  1.00000000e+00  1.00000000e+00  1.00000000e+00
  1.00000000e+00  2.54948632e-02  1.90362766e-01  8.52162022e-01  1.00000000e+00
  1.00000000e+00  1.00000000e+00  1.00000000e+00  1.00000000e+00  1.00000000e+00
  1.00000000e+00  1.00000000e+00  2.54948632e-02  1.90362766e-01  8.52162022e-01
  1.00000000e+00  1.00000000e+00  1.00000000e+00  1.00000000e+00  1.00000000e+00
  1.00000000e+00  1.00000000e+00  1.00000000e+00
Coordinates of each shell                  R   N=         249
 -2.68002005e+00 -3.85821812e-01 -1.05839554e-01 -2.68002005e+00 -3.85821812e-01
 -1.05839554e-01 -2.68002005e+00 -3.85821812e-01 -1.05839554e-01 -2.68002005e+00
 -3.85821812e-01 -1.05839554e-01 -2.68002005e+00 -3.85821812e-01 -1.05839554e-01
 -2.68002005e+00 -3.85821812e-01 -1.05839554e-01 -2.68002005e+00 -3.85821812e-01
 -1.05839554e-01 -2.68002005e+00 -3.85821812e-01 -1.05839554e-01 -2.68002005e+00
 -3.85821812e-01 -1.05839554e-01 -2.68002005e+00 -3.85821812e-01 -1.05839554e-01
 -2.68002005e+00 -3.85821812e-01 -1.05839554e-01 -2.68002005e+00 -3.85821812e-01
 -1.05839554e-01 -2.68002005e+00 -3.85821812e-01 -1.05839554e-01 -2.68002005e+00
 -3.85821812e-01 -1.05839554e-01  2.33839784e-01  4.54953555e-02  7.82011922e-03
  2.33839784e-01  4.54953555e-02  7.82011922e-03  2.33839784e-01  4.54953555e-02
  7.82011922e-03  2.33839784e-01  4.54953555e-02  7.82011922e-03  2.33839784e-01
  4.54953555e-02  7.82011922e-03  2.33839784e-01  4.54953555e-02  7.82011922e-03
  2.33839784e-01  4.54953555e-02  7.82011922e-03  2.33839784e-01  4.54953555e-02
  7.82011922e-03  2.33839784e-01  4.54953555e-02  7.82011922e-03  2.33839784e-01
  4.54953555e-02  7.82011922e-03  2.33839784e-01  4.54953555e-02  7.82011922e-03
  2.33839784e-01  4.54953555e-02  7.82011922e-03  2.33839784e-01  4.54953555e-02
  7.82011922e-03  2.33839784e-01  4.54953555e-02  7.82011922e-03  9.65586654e-01
  2.30456514e+00 -2.20777780e-01  9.65586654e-01  2.30456514e+00 -2.20777780e-01
  9.65586654e-01  2.30456514e+00 -2.20777780e-01  9.65586654e-01  2.30456514e+00
 -2.20777780e-01  9.65586654e-01  2.30456514e+00 -2.20777780e-01  9.65586654e-01
  2.30456514e+00 -2.20777780e-01  9.65586654e-01  2.30456514e+00 -2.20777780e-01
  9.65586654e-01  2.30456514e+00 -2.20777780e-01  9.65586654e-01  2.30456514e+00
 -2.20777780e-01  9.65586654e-01  2.30456514e+00 -2.20777780e-01  9.65586654e-01
  2.30456514e+00 -2.20777780e-01  9.65586654e-01  2.30456514e+00 -2.20777780e-01
  9.65586654e-01  2.30456514e+00 -2.20777780e-01  9.65586654e-01  2.30456514e+00
 -2.20777780e-01  1.50956256e+00 -1.94905980e+00  3.18553774e-01  1.50956256e+00
 -1.94905980e+00  3.18553774e-01  1.50956256e+00 -1.94905980e+00  3.18553774e-01
  1.50956256e+00 -1.94905980e+00  3.18553774e-01  1.50956256e+00 -1.94905980e+00
  3.18553774e-01  1.50956256e+00 -1.94905980e+00  3.18553774e-01  1.50956256e+00
 -1.94905980e+00  3.18553774e-01  1.50956256e+00 -1.94905980e+00  3.18553774e-01
  1.50956256e+00 -1.94905980e+00  3.18553774e-01  1.50956256e+00 -1.94905980e+00
  3.18553774e-01  1.50956256e+00 -1.94905980e+00  3.18553774e-01  1.50956256e+00
 -1.94905980e+00  3.18553774e-01  1.50956256e+00 -1.94905980e+00  3.18553774e-01
  1.50956256e+00 -1.94905980e+00  3.18553774e-01 -3.70411850e+00  1.38909158e+00
 -3.77555986e-01 -3.70411850e+00  1.38909158e+00 -3.77555986e-01 -3.70411850e+00
  1.38909158e+00 -3.77555986e-01 -3.70411850e+00  1.38909158e+00 -3.77555986e-01
 -3.70411850e+00  1.38909158e+00 -3.77555986e-01 -3.70411850e+00  1.38909158e+00
 -3.77555986e-01 -3.70411850e+00  1.38909158e+00 -3.77555986e-01 -3.70411850e+00
  1.38909158e+00 -3.77555986e-01 -3.70411850e+00  1.38909158e+00 -3.77555986e-01
 -3.13300501e+00 -1.68822120e+00 -1.65143927e+00 -3.13300501e+00 -1.68822120e+00
 -1.65143927e+00 -3.13300501e+00 -1.68822120e+00 -1.65143927e+00 -3.13300501e+00
 -1.68822120e+00 -1.65143927e+00 -3.13300501e+00 -1.68822120e+00 -1.65143927e+00
 -3.13300501e+00 -1.68822120e+00 -1.65143927e+00 -3.13300501e+00 -1.68822120e+00
 -1.65143927e+00 -3.13300501e+00 -1.68822120e+00 -1.65143927e+00 -3.13300501e+00
 -1.68822120e+00 -1.65143927e+00 -3.31904136e+00 -1.29078929e+00  1.64431989e+00
 -3.31904136e+00 -1.29078929e+00  1.64431989e+00 -3.31904136e+00 -1.29078929e+00
  1.64431989e+00 -3.31904136e+00 -1.29078929e+00  1.64431989e+00 -3.31904136e+00
 -1.29078929e+00  1.64431989e+00 -3.31904136e+00 -1.29078929e+00  1.64431989e+00
 -3.31904136e+00 -1.29078929e+00  1.64431989e+00 -3.31904136e+00 -1.29078929e+00
  1.64431989e+00 -3.31904136e+00 -1.29078929e+00  1.64431989e+00
Total Energy                               R     -2.281604604630273e+02
Alpha Orbital Energies                     R   N=         253
 -2.02896350e+01 -2.02866306e+01 -1.11344874e+01 -1.10459970e+01 -1.15665814e+00
 -1.05962183e+00 -7.88320162e-01 -5.10771825e-01 -4.14188816e-01 -4.11465077e-01
 -4.07859754e-01 -3.59018794e-01 -3.15098202e-01 -2.03933019e-01 -1.91620992e-01
 -1.88870599e-01  1.32834690e-01  1.44058391e-01  1.44713764e-01  1.85393249e-01
  2.21233899e-01  2.29312247e-01  2.30471100e-01  2.49876602e-01  2.51075789e-01
  2.67000445e-01  3.07436490e-01  3.29287624e-01  3.32123686e-01  3.58506922e-01
  3.61662194e-01  3.66498536e-01  3.84202578e-01  3.93475813e-01  4.13321707e-01
  4.25185254e-01  4.30682720e-01  4.58910621e-01  4.64171272e-01  4.90034034e-01
  4.93986290e-01  4.94071672e-01  5.01135258e-01  5.18331383e-01  5.30645729e-01
  5.49735663e-01  5.65540598e-01  5.81885166e-01  5.89453177e-01  5.94220819e-01
  6.04244291e-01  6.13167801e-01  6.40938138e-01  6.85285690e-01  6.87965335e-01
  6.88187401e-01  7.25113581e-01  7.34405124e-01  7.62880993e-01  7.88968670e-01
  8.30125131e-01  8.58273198e-01  9.09169209e-01  9.22955461e-01  9.32488034e-01
  9.42291772e-01  9.53448616e-01  9.72867593e-01  9.76483182e-01  1.02046752e+00
  1.02923939e+00  1.03216004e+00  1.03915761e+00  1.05867803e+00  1.07034693e+00
  1.07183701e+00  1.10566559e+00  1.11320797e+00  1.11604190e+00  1.12342349e+00
  1.15539489e+00  1.16648358e+00  1.17986220e+00  1.18973523e+00  1.22097769e+00
  1.22122198e+00  1.24922410e+00  1.27315578e+00  1.27731650e+00  1.27749202e+00
  1.28935782e+00  1.30063590e+00  1.34700970e+00  1.36040927e+00  1.36965989e+00
  1.37839092e+00  1.41633436e+00  1.41869790e+00  1.43656724e+00  1.45218157e+00
  1.51814796e+00  1.56587179e+00  1.60418930e+00  1.60595964e+00  1.61158945e+00
  1.65804451e+00  1.66867461e+00  1.70719570e+00  1.72880939e+00  1.74118535e+00
  1.77322757e+00  1.78522561e+00  1.79934440e+00  1.83181968e+00  1.84270225e+00
  1.85501565e+00  1.87243083e+00  1.93536696e+00  1.94310849e+00  1.96148020e+00
  2.00374176e+00  2.01322399e+00  2.03547380e+00  2.07866159e+00  2.13061023e+00
  2.14502650e+00  2.14685876e+00  2.24945280e+00  2.25197593e+00  2.28986228e+00
  2.29653883e+00  2.33687003e+00  2.38525051e+00  2.39109349e+00  2.45728817e+00
  2.49132458e+00  2.51319639e+00  2.55876227e+00  2.60056795e+00  2.67267199e+00
  2.69051932e+00  2.69892428e+00  2.74521537e+00  2.76054215e+00  2.78289742e+00
  2.80082884e+00  2.81133457e+00  2.82891564e+00  2.87743196e+00  2.94348706e+00
  2.96590823e+00  2.99080368e+00  3.01335478e+00  3.06881456e+00  3.12605249e+00
  3.18264559e+00  3.18424890e+00  3.22518892e+00  3.23954678e+00  3.26037456e+00
  3.34462632e+00  3.39852208e+00  3.47728949e+00  3.56347807e+00  3.59511024e+00
  3.63907519e+00  3.67533513e+00  3.71279598e+00  3.71887889e+00  3.76477891e+00
  3.79991823e+00  3.83303737e+00  3.86699867e+00  3.93370119e+00  3.95597879e+00
  3.99304052e+00  4.04800116e+00  4.08047975e+00  4.12208132e+00  4.13875350e+00
  4.14526637e+00  4.23365203e+00  4.23950377e+00  4.26110217e+00  4.29478016e+00
  4.32683345e+00  4.32769428e+00  4.38746810e+00  4.47304856e+00  4.47465472e+00
  4.50994002e+00  4.56214201e+00  4.58058145e+00  4.65666923e+00  4.71810750e+00
  4.76409062e+00  4.81182067e+00  4.82934605e+00  4.96120926e+00  4.96492221e+00
  4.98176015e+00  5.05310544e+00  5.07868930e+00  5.13003625e+00  5.19346464e+00
  5.21956878e+00  5.23074092e+00  5.29841086e+00  5.41123222e+00  5.46871889e+00
  5.49198631e+00  5.51809876e+00  5.60148992e+00  5.77002618e+00  5.80909930e+00
  5.84233610e+00  5.87156379e+00  6.04026389e+00  6.15618787e+00  6.27290502e+00
  6.30712354e+00  6.30885997e+00  6.57373329e+00  6.82324638e+00  6.86715473e+00
  6.88773089e+00  6.90931509e+00  6.95757345e+00  6.95837607e+00  7.11157347e+00
  7.13494939e+00  7.15990422e+00  7.24603859e+00  7.28863555e+00  7.35343560e+00
  7.42218390e+00  7.51742955e+00  7.54230969e+00  7.57007494e+00  7.59548402e+00
  7.71437158e+00  7.77796234e+00  7.85987738e+00  7.90961641e+00  7.92189219e+00
  8.04032666e+00  8.07795528e+00  8.13469124e+00  8.23111882e+00  1.43073501e+01
  1.50425842e+01  1.68923289e+01  1.84559220e+01
Alpha MO coefficients                      R   N=       64009
 -6.80094865e-05 -1.26747192e-04  1.74271846e-05  2.73402997e-03  4.26183393e-05
  1.00200357e-05  1.23932370e-06 -4.21096990e-04  7.53504157e-06 -2.48938759e-05
  5.68838666e-04 -4.91899993e-04  9.04774471e-05  5.25937174e-06  4.41732509e-06
 -1.31027829e-06 -5.89502143e-08 -4.08609793e-05  7.21700539e-05 -2.15815885e-05
 -3.75853414e-05 -4.00352551e-04 -7.17015642e-05 -1.39386186e-07  1.24110824e-05
  6.04672748e-06  3.44102497e-07 -2.04192459e-07 -4.49356879e-06 -1.97864223e-05
 -2.24103266e-04  2.09433252e-05 -1.75541746e-04  2.19932870e-05  3.59690931e-04
 -5.59166220e-05  1.13837793e-04  1.89109863e-04  2.50901366e-04  5.71967944e-05
 -2.20564628e-04 -2.92420602e-04  9.34362172e-05 -4.51901691e-05 -1.22372384e-04
 -1.68212736e-04 -5.23313137e-04 -1.15365547e-03  6.74031947e-05 -1.50891605e-04
 -4.11302653e-05 -7.25146629e-05  6.31703929e-06 -7.05628606e-04 -2.74660366e-03
  2.88431215e-04  1.64597782e-03  7.34453590e-04  5.22410198e-06  1.85319278e-04
  2.82840204e-05  5.88327725e-05  2.86704776e-04 -2.55199384e-04  4.36432066e-04
  1.13113005e-04  1.93429316e-04  1.20009573e-03 -7.47199564e-04 -4.42053124e-05
  3.76115209e-05  1.62514669e-04 -4.22946736e-05  4.94502303e-06  5.48373993e-05
  7.29174897e-05  4.11167899e-04 -1.05650386e-04 -1.98872938e-04  1.77148266e-05
 -2.87425439e-04 -6.18655659e-05 -1.46357473e-04 -8.75088610e-04  3.45362838e-04
 -7.86416370e-05 -3.48568481e-05  2.40891557e-04 -9.67656752e-05  1.95376950e-05
  1.35428335e-04  4.17524732e-04 -9.75004329e-01  2.22423042e-03 -4.36190964e-02
 -2.76893116e-03  5.32536288e-04  1.63120939e-03 -1.64899520e-04 -7.07559718e-04
 -1.99041178e-03  1.97922532e-04 -4.33004093e-04 -1.65946363e-04 -4.31352904e-06
  1.07170500e-04 -1.61416828e-06  2.56985889e-05  5.08354803e-05 -5.20873347e-05
 -3.13785400e-04 -5.62073530e-05 -1.06296284e-04 -5.57455064e-04  4.67891599e-04
 -9.89541000e-06  2.03473985e-05  4.21373458e-05 -1.01119329e-05  2.95208042e-06
  1.67525852e-05  7.97167689e-06 -3.31048472e-04 -5.78328752e-07  9.19731564e-05
 -1.08746912e-05 -4.59900534e-05 -1.63569930e-05 -2.26421362e-06 -1.69753553e-05
  1.65549289e-04 -1.92899092e-05  1.54548399e-05  7.18614373e-05 -1.75029002e-05
  2.54621801e-05  1.55871485e-04  8.70451878e-05  5.27403720e-03 -5.70083253e-05
  2.76882568e-04 -8.54085215e-04 -1.88622562e-05  4.59237051e-05 -6.56236783e-06
  1.32704642e-04 -2.24698777e-04  3.44019294e-05  2.66471720e-04 -4.02819509e-04
  6.34796104e-05  3.41478304e-06 -1.69403452e-09  1.40094206e-06  5.71529840e-06
 -1.21392489e-07  5.82466352e-05 -1.58965129e-05  1.95600811e-05  1.61778915e-05
  9.10615274e-05 -2.52425437e-06  4.13999509e-06  1.01174926e-05 -3.66457084e-06
 -5.66848379e-07 -5.58439513e-06  6.11308328e-06 -3.85955110e-04  2.03303861e-04
  1.99730637e-04 -1.23502919e-05  1.61344857e-04 -9.88863795e-06  4.52416914e-05
  9.61360046e-05 -7.84837728e-06 -1.54800434e-06 -3.78580021e-05 -1.26661711e-05
  1.18156374e-05 -6.67540121e-06  1.27413090e-05 -3.38750731e-05  3.44377749e-05
 -4.80930905e-04  9.54016414e-04  2.01340017e-05  3.19354033e-06  7.76166266e-07
 -4.50705968e-04  5.10070272e-05 -3.22730122e-05  3.10915224e-05 -6.53380064e-06
  3.32977720e-06 -3.30045934e-05  1.23495533e-05  2.03893097e-04 -9.77899093e-05
 -3.67425347e-05 -1.01498264e-06  6.19730069e-05 -2.16306386e-05  8.96234299e-06
 -7.74712451e-05  8.99392056e-05 -3.20034086e-05 -4.72450141e-04 -5.74522682e-04
 -9.51294807e-06 -4.26538368e-06 -7.45983934e-06  6.53971090e-05 -2.38386675e-05
  3.00210285e-05 -1.77705691e-06  8.34522950e-06  4.68303324e-06  1.51586377e-06
  1.84148118e-05 -9.88983586e-05  4.92565015e-05 -8.40484262e-05 -2.11321136e-05
  1.51289402e-06 -3.82148650e-05 -1.37296175e-05 -5.30807940e-06  8.78543898e-05
 -3.20350995e-05 -4.72822753e-04 -5.73149757e-04 -1.02916478e-05 -2.52307246e-06
  7.08949937e-06  6.84423646e-05 -2.80820580e-05 -1.50025520e-05 -2.32491475e-06
 -1.19056458e-05 -2.88868789e-06  3.54216035e-06  1.65297481e-05 -9.82453485e-05
  4.61809622e-05 -7.52609271e-05  4.62938099e-05 -9.65977122e-07  1.54684389e-05
  2.22454839e-05 -1.26620178e-05  9.22505070e-05 -4.75205583e-05 -1.08940785e-04
 -1.07830645e-04  1.34531554e-03 -1.90057270e-05  3.43425243e-06 -1.46427504e-06
  2.41923195e-04  1.46355120e-05  1.14843979e-05  1.08046586e-04 -5.42437697e-04
  6.95463270e-05 -2.49195830e-05  5.17344629e-06 -4.15847917e-06  1.61695323e-05
 -1.47697246e-05 -2.25246295e-04  7.00827211e-05 -1.83715057e-05  3.50367666e-04
 -2.30576491e-04 -4.55085688e-06 -4.10490565e-06  1.26978170e-05 -4.95186599e-06
  9.06836900e-07  8.96806547e-06  2.29746423e-05  5.05997573e-04 -1.77688641e-05
  2.94194710e-05 -4.53175266e-06 -1.16330988e-04  1.59847069e-05 -2.01874263e-05
  3.10858143e-05 -1.80743095e-05  2.21301228e-05 -3.08187132e-05 -8.49392859e-05
  2.83405725e-05  4.43448450e-05  2.55954733e-04  5.90569334e-05  4.87381976e-04
  1.08273857e-03 -9.48083789e-05 -1.56174066e-03  5.88721355e-05 -5.85886299e-05
  1.03378252e-05  1.42569277e-03 -2.37607611e-03  3.64931904e-04 -2.50641156e-04
  3.84038323e-04 -6.07027512e-05 -1.93936996e-04  5.32213842e-05 -7.71285437e-05
 -1.34043783e-04 -3.43743685e-04 -3.20443214e-04  1.71561304e-04 -2.22199910e-04
 -5.87503403e-04 -1.43397235e-03 -5.31069964e-05 -7.47871406e-05  1.36738055e-04
 -2.84696677e-05 -4.00452617e-05 -8.83363254e-05  1.31590357e-05 -4.17392145e-04
  1.55219738e-04 -2.72501831e-04  4.13441217e-05  3.23163572e-04 -9.56352179e-05
  1.39716344e-04  2.77317562e-04  6.56629945e-04 -7.79657242e-05 -9.30982319e-05
  2.03313025e-04 -1.11007241e-04 -9.87777256e-05 -5.39433552e-04  2.76431206e-04
  5.33332005e-03  2.88090116e-05  1.99403653e-04  9.92817609e-04  2.87257899e-06
  3.15791796e-05 -3.61482384e-06 -8.15575917e-05 -2.38035073e-04  2.38508797e-05
 -3.44972998e-04 -5.27654029e-04  4.37397935e-05 -4.50374561e-06  1.56861624e-07
 -1.81083194e-06 -6.80002613e-06 -7.17476249e-07 -5.53746411e-05 -4.40924759e-06
 -1.35428649e-05 -4.50673120e-05  6.15567907e-05 -3.07470760e-06 -3.96262504e-06
  8.12127699e-06 -2.05865797e-06 -1.40687560e-06 -1.32073442e-06  4.85868834e-06
  1.06613303e-04 -1.14246536e-04  1.92747368e-04 -2.94764327e-05 -1.53401487e-04
  1.01433976e-05 -4.57501289e-05 -1.07296508e-04 -6.59102308e-06  7.53847615e-06
  2.72918022e-05 -1.15217125e-05  3.41259020e-06  5.61901590e-06  4.94985563e-06
 -2.17292672e-05  9.74986271e-01 -2.25505140e-03  4.36162926e-02  2.62344475e-03
 -9.28539124e-04  1.43633766e-03 -2.24273364e-04  1.18118025e-03 -1.75155424e-03
  2.76305182e-04  3.52957956e-04 -3.50773631e-05  2.42930332e-05 -9.86146349e-05
  1.71431134e-05 -2.75237508e-05 -2.17281309e-05 -7.05598155e-05  2.91696577e-04
 -9.47855655e-05  1.33811408e-04  2.73719642e-04  6.73051230e-04 -1.47575658e-05
 -2.75315221e-05  3.49361234e-05 -4.68532303e-06 -1.17544565e-05 -1.71392728e-05
 -6.39123758e-06  4.20400699e-05  2.41889366e-05  7.36154814e-05 -7.46501583e-06
  4.42772384e-06 -1.59363002e-05  1.46786362e-06 -4.70919282e-05  1.06402017e-04
 -2.01355101e-05 -2.41619584e-05  5.21869423e-05 -1.56692079e-05 -3.85087994e-05
 -1.77093954e-04 -3.32986510e-05  7.35252129e-06 -5.08594902e-04  9.04888446e-04
 -1.44190987e-06 -1.25672313e-06  9.57014191e-08  1.06383212e-04  1.52603807e-04
 -1.29052837e-05  7.40615603e-06  1.82150838e-06  3.31694714e-06  1.99248862e-05
 -1.22141115e-05  7.30421660e-05  3.72859076e-04 -1.26271202e-04  3.55544560e-05
  3.43285959e-07  8.20048971e-07  7.50241203e-06  5.27116597e-05  1.66280779e-05
 -2.56819897e-05  3.33172703e-05 -6.97059791e-04 -2.52630420e-05 -1.81172814e-06
  1.86825000e-07  1.37451110e-04  9.07611436e-05  6.45543840e-05 -4.54867613e-06
  1.54370940e-05  1.20199867e-05  3.76115420e-06  2.89546066e-06 -6.67062943e-05
 -6.64542895e-06 -9.16066909e-05 -1.44892234e-04 -1.23780724e-05  5.71579635e-05
  3.45931292e-05  5.34864729e-05  1.60603892e-05 -2.57114600e-05  3.46930536e-05
 -6.88335403e-04 -2.50988118e-05 -2.14858305e-06 -2.61423801e-06  1.44806006e-04
  7.55999551e-05 -6.85652322e-05 -2.46714238e-06 -1.44887599e-05 -1.18605714e-05
  8.27545941e-06  7.32513046e-07 -6.64573000e-05 -2.36678423e-05 -5.46696264e-05
  1.59040036e-04 -1.07428451e-05 -5.07193995e-05 -2.36522595e-05  6.66991468e-05
  6.34088154e-06  2.90277889e-03  1.69313074e-04  1.12156871e-04 -1.32154571e-03
  1.31181515e-04  1.82460058e-05  5.24362472e-06  1.82956285e-03  3.85556140e-04
  5.65296931e-05 -5.50802200e-03  1.06999948e-03 -4.41489973e-04 -8.84461644e-05
  6.51125186e-06 -1.30087364e-06  1.09667155e-04  6.94159605e-05  2.09247973e-04
  6.08064457e-05 -3.87044788e-05 -2.95960293e-04 -8.04488492e-04  6.99156447e-06
  9.19487472e-05  1.84664660e-05 -8.26073169e-06 -2.33215375e-05 -2.07120564e-04
 -1.22147326e-04  8.53950081e-04 -1.25347365e-04  1.05980041e-04 -2.01069293e-05
 -6.44659930e-04  5.54577144e-05 -3.13234183e-04 -1.22107732e-03 -4.91107568e-04
  3.39622698e-04  9.18500525e-04 -6.59568675e-04  9.21418815e-05  3.40680445e-04
  6.39208147e-04  2.23548601e-05  9.79747393e-01  3.26438540e-03  4.12835556e-02
  7.62273116e-03 -1.90697276e-04 -1.53017241e-05 -8.73665256e-06  2.03207025e-03
  4.67521810e-04  5.87597515e-05 -9.33484826e-03 -2.92018922e-03 -1.78225408e-04
 -8.29378991e-04  6.64103496e-05 -2.31342570e-04 -4.35700209e-04 -6.65094602e-05
  2.71891594e-04  5.37369979e-06 -7.01463465e-05 -7.58432740e-04 -6.14973005e-04
 -2.11635479e-05 -2.28389160e-04 -4.86410552e-05  2.25165820e-05 -1.96544947e-04
 -8.76796144e-04 -3.67128872e-04  4.62176732e-05  5.10262813e-05 -1.47357067e-04
  2.08022113e-05  1.59948315e-04  3.40468562e-06  3.39119845e-04  2.12743298e-03
  8.26725378e-04  2.35287556e-05  6.23241359e-04  2.34751370e-04 -1.61117230e-04
  4.32534423e-04  1.67505440e-03  1.18878770e-03  9.60667867e-05  7.70833923e-04
  3.03190346e-04  1.40886043e-03 -1.12001426e-04 -3.52721435e-04  3.58204490e-05
  2.21683865e-05  9.70276168e-05 -1.04016736e-05  1.45591625e-03  1.32042769e-03
 -7.63041785e-05 -1.52083546e-05 -2.12666726e-06 -5.09142170e-06 -2.46377324e-05
  1.88833089e-05  3.72164636e-04  2.32426304e-05  1.19065486e-04  4.71761681e-04
 -2.82666467e-04 -3.49996791e-07  4.49128529e-06  3.24013025e-06  2.01949535e-06
 -2.54768808e-06 -9.10468281e-06 -2.48352218e-05  1.23803478e-03 -2.97518100e-04
  5.29054320e-05 -2.33664760e-05  6.62380975e-04  4.47134577e-05  1.29651776e-04
  2.92532706e-04 -7.82757012e-04  6.74306483e-05 -8.24622521e-05 -2.61482190e-04
  7.71233207e-05 -4.45174684e-05 -2.46620247e-04 -2.39631995e-04 -7.85015735e-07
  5.85385893e-04  2.84040841e-04  2.18620201e-04 -2.00043886e-04  3.13894998e-04
 -4.88603232e-05  1.41838115e-04 -1.50555017e-04  2.59916262e-05  2.29776462e-03
 -3.34670415e-04  1.69413653e-04 -6.97554444e-06  3.29101087e-06 -4.64034052e-06
 -1.29649787e-05 -2.76192754e-05  3.26325831e-04 -7.42895162e-05  1.27746280e-04
  2.62232734e-04  4.68849095e-04  2.61317986e-07 -2.23895488e-06 -2.15713169e-06
 -1.88371962e-06 -2.71739383e-06 -2.01116674e-05  7.33883026e-06  6.39611407e-04
 -1.52931597e-04 -5.56023125e-05 -2.19942012e-06  4.76339443e-04 -1.45309262e-04
  9.50498361e-05 -3.56168937e-04  6.49612704e-04 -7.37513696e-05 -8.29686626e-05
  1.97099151e-04 -6.25759604e-05 -8.25545038e-05 -3.40301296e-04  4.74425914e-05
  5.44090872e-06 -2.21010635e-03 -5.48045301e-03  2.55370233e-06 -8.32896991e-06