2022-11-03:11:59:03,825 INFO     [psi4.driver.task_planner:266] PLANNING Atomic:  keywords={'CUBEPROP_TASKS': ['ESP'], 'FREEZE_CORE': 'TRUE', 'MAXITER': 500, 'PROPERTIES_ORIGIN': ['COM'], 'function_kwargs': {}}
2022-11-03:11:59:03,827 INFO     [psi4.driver.driver:774] Compute properties(): method=mp2, basis=aug-cc-pvtz, molecule=default, nre=111.29172367070018
2022-11-03:11:59:24,940 INFO     [psi4.driver.driver:777] Return properties(): -228.1604604630273
. A. Shaw, J. B. Schriber, Y. Xie, Z. L. Glick, D. A. Sirianni,
    J. S. O'Brien, J. M. Waldrop, A. Kumar, E. G. Hohenstein,
    B. P. Pritchard, B. R. Brooks, H. F. Schaefer III, A. Yu. Sokolov,
    K. Patkowski, A. E. DePrince III, U. Bozkaya, R. A. King,
    F. A. Evangelista, J. M. Turney, T. D. Crawford, C. D. Sherrill,
    J. Chem. Phys. 152(18) 184108 (2020). https://doi.org/10.1063/5.0006002

                            Additional Code Authors
    E. T. Seidl, C. L. Janssen, E. F. Valeev, M. L. Leininger,
    J. F. Gonthier, R. M. Richard, H. R. McAlexander, M. Saitow, X. Wang,
    P. Verma, M. H. Lechner, and A. Jiang

             Previous Authors, Complete List of Code Contributors,
                       and Citations for Specific Modules
    https://github.com/psi4/psi4/blob/master/codemeta.json
    https://github.com/psi4/psi4/graphs/contributors
    http://psicode.org/psi4manual/master/introduction.html#citing-psifour

    -----------------------------------------------------------------------


    Psi4 started on: Thursday, 03 November 2022 11:59AM

    Process ID: 1708
    Host:       DESKTOP-26BCFJT
    PSIDATADIR: /home/chase/psi4conda/share/psi4
    Memory:     500.0 MiB
    Threads:    1
    
  ==> Input File <==

--------------------------------------------------------------------------
molecule { 
-1 1
C -1.418205535941 -0.204168110331 -0.056007879949
C 0.12374268479 0.024075105346 0.004138228874
O 0.51096645217 1.219523352752 -0.116830569671
O 0.79882610667 -1.031398028614 0.168571397582
H -1.960135097029 0.735075607817 -0.199794023579
H -1.657914850806 -0.893368187456 -0.873904028267
H -1.756361047088 -0.683056276009 0.870136614755
}
memory 5GB
set_num_threads(6)
psi4_io.set_default_path("/home/chase/temp/Psi4-acet")
set maxiter 500
set freeze_core True
set PROPERTIES_ORIGIN ["COM"]
set cubeprop_tasks ['esp']
set basis aug-cc-pVTZ 
E, wfn = properties('mp2',properties=['dipole','GRID_ESP','WIBERG_LOWDIN_INDICES','MULLIKEN_CHARGES'],return_wfn=True)
cubeprop(wfn)
fchk(wfn, "acet-esp.fchk")
clean()
--------------------------------------------------------------------------

  Memory set to   4.657 GiB by Python driver.
  Threads set to 6 by Python driver.
    SCF Algorithm Type (re)set to DF.

*** tstart() called on DESKTOP-26BCFJT
*** at Thu Nov  3 11:59:03 2022

   => Loading Basis Set <=

    Name: AUG-CC-PVTZ
    Role: ORBITAL
    Keyword: BASIS
    atoms 1-2 entry C          line   239 file /home/chase/psi4conda/share/psi4/basis/aug-cc-pvtz.gbs 
    atoms 3-4 entry O          line   331 file /home/chase/psi4conda/share/psi4/basis/aug-cc-pvtz.gbs 
    atoms 5-7 entry H          line    40 file /home/chase/psi4conda/share/psi4/basis/aug-cc-pvtz.gbs 


         ---------------------------------------------------------
                                   SCF
               by Justin Turney, Rob Parrish, Andy Simmonett
                          and Daniel G. A. Smith
                              RHF Reference
                        6 Threads,   4768 MiB Core
         ---------------------------------------------------------

  ==> Geometry <==

    Molecular point group: c1
    Full point group: C1

    Geometry (in Angstrom), charge = -1, multiplicity = 1:

       Center              X                  Y                   Z               Mass       
    ------------   -----------------  -----------------  -----------------  -----------------
         C           -1.418205535941    -0.204168110331    -0.056007879949    12.000000000000
         C            0.123742684790     0.024075105346     0.004138228874    12.000000000000
         O            0.510966452170     1.219523352752    -0.116830569671    15.994914619570
         O            0.798826106670    -1.031398028614     0.168571397582    15.994914619570
         H           -1.960135097029     0.735075607817    -0.199794023579     1.007825032230
         H           -1.657914850806    -0.893368187456    -0.873904028267     1.007825032230
         H           -1.756361047088    -0.683056276009     0.870136614755     1.007825032230

  Running in c1 symmetry.

  Rotational constants: A =      0.37490  B =      0.33407  C =      0.18263 [cm^-1]
  Rotational constants: A =  11239.16922  B =  10015.26270  C =   5474.98450 [MHz]
  Nuclear repulsion =  111.291723670700193

  Charge       = -1
  Multiplicity = 1
  Electrons    = 32
  Nalpha       = 16
  Nbeta        = 16

  ==> Algorithm <==

  SCF Algorithm Type is DF.
  DIIS enabled.
  MOM disabled.
  Fractional occupation disabled.
  Guess Type is SAD.
  Energy threshold   = 1.00e-10
  Density threshold  = 1.00e-10
  Integral threshold = 1.00e-12

  ==> Primary Basis <==

  Basis Set: AUG-CC-PVTZ
    Blend: AUG-CC-PVTZ
    Number of shells: 83
    Number of basis functions: 253
    Number of Cartesian functions: 295
    Spherical Harmonics?: true
    Max angular momentum: 3

   => Loading Basis Set <=

    Name: (AUG-CC-PVTZ AUX)
    Role: JKFIT
    Keyword: DF_BASIS_SCF
    atoms 1-2 entry C          line   162 file /home/chase/psi4conda/share/psi4/basis/aug-cc-pvtz-jkfit.gbs 
    atoms 3-4 entry O          line   286 file /home/chase/psi4conda/share/psi4/basis/aug-cc-pvtz-jkfit.gbs 
    atoms 5-7 entry H          line    70 file /home/chase/psi4conda/share/psi4/basis/aug-cc-pvtz-jkfit.gbs 

  ==> Integral Setup <==

  DFHelper Memory: AOs need 0.282 GiB; user supplied 3.492 GiB. Using in-core AOs.

  ==> MemDFJK: Density-Fitted J/K Matrices <==

    J tasked:                   Yes
    K tasked:                   Yes
    wK tasked:                   No
    OpenMP threads:               6
    Memory [MiB]:              3576
    Algorithm:                 Core
    Schwarz Cutoff:           1E-12
    Mask sparsity (%):       0.1000
    Fitting Condition:        1E-10

   => Auxiliary Basis Set <=

  Basis Set: (AUG-CC-PVTZ AUX)
    Blend: AUG-CC-PVTZ-JKFIT
    Number of shells: 162
    Number of basis functions: 554
    Number of Cartesian functions: 689
    Spherical Harmonics?: true
    Max angular momentum: 4

  Minimum eigenvalue in the overlap matrix is 3.5751120522E-05.
  Reciprocal condition number of the overlap matrix is 2.9794193885E-06.
    Using symmetric orthogonalization.

  ==> Pre-Iterations <==

  SCF Guess: Superposition of Atomic Densities via on-the-fly atomic UHF (no occupation information).

   -------------------------
    Irrep   Nso     Nmo    
   -------------------------
     A        253     253 
   -------------------------
    Total     253     253
   -------------------------

  ==> Iterations <==

                           Total Energy        Delta E     RMS |[F,P]|

   @DF-RHF iter SAD:  -226.08287649347369   -2.26083e+02   0.00000e+00 
   @DF-RHF iter   1:  -227.11634812681825   -1.03347e+00   2.73951e-03 ADIIS/DIIS
   @DF-RHF iter   2:  -227.26140514203399   -1.45057e-01   1.78244e-03 ADIIS/DIIS
   @DF-RHF iter   3:  -227.32524343728036   -6.38383e-02   2.09331e-04 ADIIS/DIIS
   @DF-RHF iter   4:  -227.32698725282066   -1.74382e-03   8.06868e-05 DIIS
   @DF-RHF iter   5:  -227.32731809193939   -3.30839e-04   1.39147e-05 DIIS
   @DF-RHF iter   6:  -227.32733231962914   -1.42277e-05   2.84053e-06 DIIS
   @DF-RHF iter   7:  -227.32733297755047   -6.57921e-07   9.46788e-07 DIIS
   @DF-RHF iter   8:  -227.32733302768375   -5.01333e-08   3.09884e-07 DIIS
   @DF-RHF iter   9:  -227.32733303490795   -7.22420e-09   1.61839e-07 DIIS
   @DF-RHF iter  10:  -227.32733303608097   -1.17302e-09   5.19960e-08 DIIS
   @DF-RHF iter  11:  -227.32733303640794   -3.26963e-10   1.85529e-08 DIIS
   @DF-RHF iter  12:  -227.32733303644721   -3.92788e-11   4.53599e-09 DIIS
   @DF-RHF iter  13:  -227.32733303644980   -2.58638e-12   1.15124e-09 DIIS
   @DF-RHF iter  14:  -227.32733303644989   -8.52651e-14   4.80831e-10 DIIS
   @DF-RHF iter  15:  -227.32733303644994   -5.68434e-14   1.24583e-10 DIIS
   @DF-RHF iter  16:  -227.32733303644983    1.13687e-13   2.67927e-11 DIIS
  Energy and wave function converged.


  ==> Post-Iterations <==

    Orbital Energies [Eh]
    ---------------------

    Doubly Occupied:                                                      

       1A    -20.289635     2A    -20.286631     3A    -11.134487  
       4A    -11.045997     5A     -1.156658     6A     -1.059622  
       7A     -0.788320     8A     -0.510772     9A     -0.414189  
      10A     -0.411465    11A     -0.407860    12A     -0.359019  
      13A     -0.315098    14A     -0.203933    15A     -0.191621  
      16A     -0.188871  

    Virtual:                                                              

      17A      0.132835    18A      0.144058    19A      0.144714  
      20A      0.185393    21A      0.221234    22A      0.229312  
      23A      0.230471    24A      0.249877    25A      0.251076  
      26A      0.267000    27A      0.307436    28A      0.329288  
      29A      0.332124    30A      0.358507    31A      0.361662  
      32A      0.366499    33A      0.384203    34A      0.393476  
      35A      0.413322    36A      0.425185    37A      0.430683  
      38A      0.458911    39A      0.464171    40A      0.490034  
      41A      0.493986    42A      0.494072    43A      0.501135  
      44A      0.518331    45A      0.530646    46A      0.549736  
      47A      0.565541    48A      0.581885    49A      0.589453  
      50A      0.594221    51A      0.604244    52A      0.613168  
      53A      0.640938    54A      0.685286    55A      0.687965  
      56A      0.688187    57A      0.725114    58A      0.734405  
      59A      0.762881    60A      0.788969    61A      0.830125  
      62A      0.858273    63A      0.909169    64A      0.922955  
      65A      0.932488    66A      0.942292    67A      0.953449  
      68A      0.972868    69A      0.976483    70A      1.020468  
      71A      1.029239    72A      1.032160    73A      1.039158  
      74A      1.058678    75A      1.070347    76A      1.071837  
      77A      1.105666    78A      1.113208    79A      1.116042  
      80A      1.123423    81A      1.155395    82A      1.166484  
      83A      1.179862    84A      1.189735    85A      1.220978  
      86A      1.221222    87A      1.249224    88A      1.273156  
      89A      1.277316    90A      1.277492    91A      1.289358  
      92A      1.300636    93A      1.347010    94A      1.360409  
      95A      1.369660    96A      1.378391    97A      1.416334  
      98A      1.418698    99A      1.436567   100A      1.452182  
     101A      1.518148   102A      1.565872   103A      1.604189  
     104A      1.605960   105A      1.611589   106A      1.658045  
     107A      1.668675   108A      1.707196   109A      1.728809  
     110A      1.741185   111A      1.773228   112A      1.785226  
     113A      1.799344   114A      1.831820   115A      1.842702  
     116A      1.855016   117A      1.872431   118A      1.935367  
     119A      1.943108   120A      1.961480   121A      2.003742  
     122A      2.013224   123A      2.035474   124A      2.078662  
     125A      2.130610   126A      2.145026   127A      2.146859  
     128A      2.249453   129A      2.251976   130A      2.289862  
     131A      2.296539   132A      2.336870   133A      2.385251  
     134A      2.391093   135A      2.457288   136A      2.491325  
     137A      2.513196   138A      2.558762   139A      2.600568  
     140A      2.672672   141A      2.690519   142A      2.698924  
     143A      2.745215   144A      2.760542   145A      2.782897  
     146A      2.800829   147A      2.811335   148A      2.828916  
     149A      2.877432   150A      2.943487   151A      2.965908  
     152A      2.990804   153A      3.013355   154A      3.068815  
     155A      3.126052   156A      3.182646   157A      3.184249  
     158A      3.225189   159A      3.239547   160A      3.260375  
     161A      3.344626   162A      3.398522   163A      3.477289  
     164A      3.563478   165A      3.595110   166A      3.639075  
     167A      3.675335   168A      3.712796   169A      3.718879  
     170A      3.764779   171A      3.799918   172A      3.833037  
     173A      3.866999   174A      3.933701   175A      3.955979  
     176A      3.993041   177A      4.048001   178A      4.080480  
     179A      4.122081   180A      4.138754   181A      4.145266  
     182A      4.233652   183A      4.239504   184A      4.261102  
     185A      4.294780   186A      4.326833   187A      4.327694  
     188A      4.387468   189A      4.473049   190A      4.474655  
     191A      4.509940   192A      4.562142   193A      4.580581  
     194A      4.656669   195A      4.718107   196A      4.764091  
     197A      4.811821   198A      4.829346   199A      4.961209  
     200A      4.964922   201A      4.981760   202A      5.053105  
     203A      5.078689   204A      5.130036   205A      5.193465  
     206A      5.219569   207A      5.230741   208A      5.298411  
     209A      5.411232   210A      5.468719   211A      5.491986  
     212A      5.518099   213A      5.601490   214A      5.770026  
     215A      5.809099   216A      5.842336   217A      5.871564  
     218A      6.040264   219A      6.156188   220A      6.272905  
     221A      6.307124   222A      6.308860   223A      6.573733  
     224A      6.823246   225A      6.867155   226A      6.887731  
     227A      6.909315   228A      6.957573   229A      6.958376  
     230A      7.111573   231A      7.134949   232A      7.159904  
     233A      7.246039   234A      7.288636   235A      7.353436  
     236A      7.422184   237A      7.517430   238A      7.542310  
     239A      7.570075   240A      7.595484   241A      7.714372  
     242A      7.777962   243A      7.859877   244A      7.909616  
     245A      7.921892   246A      8.040327   247A      8.077955  
     248A      8.134691   249A      8.231119   250A     14.307350  
     251A     15.042584   252A     16.892329   253A     18.455922  

    Final Occupation by Irrep:
              A 
    DOCC [    16 ]

  @DF-RHF Final Energy:  -227.32733303644983

   => Energetics <=

    Nuclear Repulsion Energy =            111.2917236707001933
    One-Electron Energy =                -539.7097590709651058
    Two-Electron Energy =                 201.0907023638150690
    Total Energy =                       -227.3273330364498293

Computation Completed

*** tstop() called on DESKTOP-26BCFJT at Thu Nov  3 11:59:05 2022
Module time:
	user time   =      11.00 seconds =       0.18 minutes
	system time =       0.52 seconds =       0.01 minutes
	total time  =          2 seconds =       0.03 minutes
Total time:
	user time   =      11.00 seconds =       0.18 minutes
	system time =       0.52 seconds =       0.01 minutes
	total time  =          2 seconds =       0.03 minutes
   => Loading Basis Set <=

    Name: (AUG-CC-PVTZ AUX)
    Role: RIFIT
    Keyword: DF_BASIS_MP2
    atoms 1-2 entry C          line   148 file /home/chase/psi4conda/share/psi4/basis/aug-cc-pvtz-ri.gbs 
    atoms 3-4 entry O          line   264 file /home/chase/psi4conda/share/psi4/basis/aug-cc-pvtz-ri.gbs 
    atoms 5-7 entry H          line    30 file /home/chase/psi4conda/share/psi4/basis/aug-cc-pvtz-ri.gbs 


*** tstart() called on DESKTOP-26BCFJT
*** at Thu Nov  3 11:59:05 2022


  //>>>>>>>>>>>>>>>>>>>>>>>>>>>>>>>>>>>//
  //               DFMP2               //
  //<<<<<<<<<<<<<<<<<<<<<<<<<<<<<<<<<<<//

	 --------------------------------------------------------
	                          DF-MP2                         
	      2nd-Order Density-Fitted Moller-Plesset Theory     
	              RMP2 Wavefunction,   6 Threads             
	                                                         
	        Rob Parrish, Justin Turney, Andy Simmonett,      
	           Ed Hohenstein, and C. David Sherrill          
	 --------------------------------------------------------

   => Auxiliary Basis Set <=

  Basis Set: (AUG-CC-PVTZ AUX)
    Blend: AUG-CC-PVTZ-RI
    Number of shells: 154
    Number of basis functions: 562
    Number of Cartesian functions: 709
    Spherical Harmonics?: true
    Max angular momentum: 4

	 --------------------------------------------------------
	                 NBF =   253, NAUX =   562
	 --------------------------------------------------------
	   CLASS    FOCC     OCC    AOCC    AVIR     VIR    FVIR
	   PAIRS       4      16      12     237     237       0
	 --------------------------------------------------------

  DFHelper Memory: AOs need 0.282 GiB; user supplied 3.492 GiB. Using in-core AOs.


         ------------------------------------------------------------
                                     CPHF                           
                                  Rob Parrish                       
         ------------------------------------------------------------

  ==> Geometry <==

    Molecular point group: c1
    Full point group: C1

    Geometry (in Angstrom), charge = -1, multiplicity = 1:

       Center              X                  Y                   Z               Mass       
    ------------   -----------------  -----------------  -----------------  -----------------
         C           -1.418205535941    -0.204168110331    -0.056007879949    12.000000000000
         C            0.123742684790     0.024075105346     0.004138228874    12.000000000000
         O            0.510966452170     1.219523352752    -0.116830569671    15.994914619570
         O            0.798826106670    -1.031398028614     0.168571397582    15.994914619570
         H           -1.960135097029     0.735075607817    -0.199794023579     1.007825032230
         H           -1.657914850806    -0.893368187456    -0.873904028267     1.007825032230
         H           -1.756361047088    -0.683056276009     0.870136614755     1.007825032230

  Nuclear repulsion =  111.291723670700193
  Reference energy  = -227.327333036449829

  ==> Basis Set <==

  Basis Set: AUG-CC-PVTZ
    Blend: AUG-CC-PVTZ
    Number of shells: 83
    Number of basis functions: 253
    Number of Cartesian functions: 295
    Spherical Harmonics?: true
    Max angular momentum: 3

  ==> CGRSolver (by Rob Parrish) <==

   Number of roots    =         1
   Preconditioning    =    JACOBI
   Convergence cutoff =     1E-06
   Maximum iterations =       100

  ==> CPHFRHamiltonian (by Rob Parrish) <== 

  ==> MemDFJK: Density-Fitted J/K Matrices <==

    J tasked:                   Yes
    K tasked:                   Yes
    wK tasked:                   No
    OpenMP threads:               6
    Memory [MiB]:              3576
    Algorithm:                 Core
    Schwarz Cutoff:           1E-12
    Mask sparsity (%):       0.1000
    Fitting Condition:        1E-10

   => Auxiliary Basis Set <=

  Basis Set: (AUG-CC-PVTZ AUX)
    Blend: AUG-CC-PVTZ-JKFIT
    Number of shells: 162
    Number of basis functions: 554
    Number of Cartesian functions: 689
    Spherical Harmonics?: true
    Max angular momentum: 4

  ==> CPHF Iterations <==

  => Iterations <=

             Iter  Converged  Remaining    Residual
  CGR           1          0          1   1.238E-01
  CGR           2          0          1   3.062E-02
  CGR           3          0          1   1.279E-02
  CGR           4          0          1   2.992E-03
  CGR           5          0          1   7.591E-04
  CGR           6          0          1   2.186E-04
  CGR           7          0          1   7.338E-05
  CGR           8          0          1   2.576E-05
  CGR           9          0          1   6.788E-06
  CGR          10          0          1   1.631E-06
  CGR          11          1          0   3.432E-07

    CGRSolver converged.

	-----------------------------------------------------------
	 ==================> DF-MP2 Energies <==================== 
	-----------------------------------------------------------
	 Reference Energy          =    -227.3273330364498293 [Eh]
	 Singles Energy            =      -0.0000000000000000 [Eh]
	 Same-Spin Energy          =      -0.2118159853951254 [Eh]
	 Opposite-Spin Energy      =      -0.6213114411823372 [Eh]
	 Correlation Energy        =      -0.8331274265774625 [Eh]
	 Total Energy              =    -228.1604604630273059 [Eh]
	-----------------------------------------------------------
	 ================> DF-SCS-MP2 Energies <================== 
	-----------------------------------------------------------
	 SCS Same-Spin Scale       =       0.3333333333333333 [-]
	 SCS Opposite-Spin Scale   =       1.2000000000000000 [-]
	 SCS Same-Spin Energy      =      -0.0706053284650418 [Eh]
	 SCS Opposite-Spin Energy  =      -0.7455737294188046 [Eh]
	 SCS Correlation Energy    =      -0.8161790578838464 [Eh]
	 SCS Total Energy          =    -228.1435120943336869 [Eh]
	-----------------------------------------------------------



Properties will be evaluated at   0.000000,  -0.000000,   0.000000 [a0]

Properties computed using the MP2 density matrix


 Multipole Moments:

 ------------------------------------------------------------------------------------
     Multipole            Electronic (a.u.)      Nuclear  (a.u.)        Total (a.u.)
 ------------------------------------------------------------------------------------

 L = 1.  Multiply by 2.5417464519 to convert [e a0] to [Debye]
 Dipole X            :          3.7735467           -5.0320527           -1.2585060
 Dipole Y            :          0.6177409           -0.7878349           -0.1700940
 Dipole Z            :          0.1395818           -0.1905840           -0.0510022
 Magnitude           :                                                    1.2709723

 ------------------------------------------------------------------------------------
  Mulliken Charges: (a.u.)
   Center  Symbol    Alpha    Beta     Spin     Total
       1     C     3.36028  3.36028  0.00000 -0.72056
       2     C     2.85597  2.85597  0.00000  0.28806
       3     O     4.33792  4.33792  0.00000 -0.67583
       4     O     4.34893  4.34893  0.00000 -0.69786
       5     H     0.34882  0.34882  0.00000  0.30236
       6     H     0.37400  0.37400  0.00000  0.25199
       7     H     0.37408  0.37408  0.00000  0.25184

   Total alpha = 16.00000, Total beta = 16.00000, Total charge = -1.00000



  Wiberg Bond Indices using Orthogonal Lowdin Orbitals:

  Irrep: 1 Size: 7 x 7

                 1                   2                   3                   4                   5

    1     0.00000000000000     1.11683316072235     0.42605509906108     0.43598898222147     0.89956017786909
    2     1.11683316072235     0.00000000000000     2.78425266709820     2.77766911566906     0.27551457580992
    3     0.42605509906108     2.78425266709820     0.00000000000000     0.51342534518941     0.08999130669788
    4     0.43598898222147     2.77766911566906     0.51342534518941     0.00000000000000     0.04234306965676
    5     0.89956017786909     0.27551457580992     0.08999130669788     0.04234306965676     0.00000000000000
    6     0.89535935051779     0.27499458655577     0.04388545659714     0.06941919292441     0.28218031179515
    7     0.89532537234388     0.27507852228171     0.04391836643802     0.06940933026406     0.28218499847797

                 6                   7

    1     0.89535935051779     0.89532537234388
    2     0.27499458655577     0.27507852228171
    3     0.04388545659714     0.04391836643802
    4     0.06941919292441     0.06940933026406
    5     0.28218031179515     0.28218499847797
    6     0.00000000000000     0.28943813670964
    7     0.28943813670964     0.00000000000000



  Atomic Valences: 

 #  #
 Irrep: 1
      1:    4.669122142735668
      2:    7.504342628137001
      3:    3.901528241081736
      4:    3.908255035925166
      5:    1.871774440306783
      6:    1.855277035099898
      7:    1.855354726515281


 Electrostatic potential computed on the grid and written to grid_esp.dat

*** tstop() called on DESKTOP-26BCFJT at Thu Nov  3 11:59:24 2022
Module time:
	user time   =      81.82 seconds =       1.36 minutes
	system time =       2.04 seconds =       0.03 minutes
	total time  =         19 seconds =       0.32 minutes
Total time:
	user time   =      93.17 seconds =       1.55 minutes
	system time =       2.57 seconds =       0.04 minutes
	total time  =         21 seconds =       0.35 minutes
  ==> One Electron Grid Properties (v2.0) <==

  ==> CubicScalarGrid <==

    Filepath     = .
    Total Points =           248472
    XYZ Blocking =               10
    X Points     =               68
    Y Points     =               63
    Z Points     =               58
    X Spacing    =        2.000E-01
    Y Spacing    =        2.000E-01
    Z Spacing    =        2.000E-01
    X Minimum    =       -7.797E+00
    Y Minimum    =       -6.022E+00
    Z Minimum    =       -5.704E+00
    X Maximum    =        5.603E+00
    Y Maximum    =        6.378E+00
    Z Maximum    =        5.696E+00

  Basis Set: AUG-CC-PVTZ
    Blend: AUG-CC-PVTZ
    Number of shells: 83
    Number of basis functions: 253
    Number of Cartesian functions: 295
    Spherical Harmonics?: true
    Max angular momentum: 3

*********************************************************************************************************************
When computing potential integrals with different bra and ket basis, the atom definition is taken from the bra basis.
*********************************************************************************************************************
*********************************************************************************************************************
When computing potential integrals with different bra and ket basis, the atom definition is taken from the bra basis.
*********************************************************************************************************************
*********************************************************************************************************************
When computing potential integrals with different bra and ket basis, the atom definition is taken from the bra basis.
*********************************************************************************************************************
*********************************************************************************************************************
When computing potential integrals with different bra and ket basis, the atom definition is taken from the bra basis.
*********************************************************************************************************************
*********************************************************************************************************************
When computing potential integrals with different bra and ket basis, the atom definition is taken from the bra basis.
*********************************************************************************************************************
*********************************************************************************************************************
When computing potential integrals with different bra and ket basis, the atom definition is taken from the bra basis.
*********************************************************************************************************************
   => Loading Basis Set <=

    Name: AUG-CC-PVTZ
    Role: ORBITAL
    Keyword: BASIS
    atoms 1-2 entry C          line   239 file /home/chase/psi4conda/share/psi4/basis/aug-cc-pvtz.gbs 
    atoms 3-4 entry O          line   331 file /home/chase/psi4conda/share/psi4/basis/aug-cc-pvtz.gbs 
    atoms 5-7 entry H          line    40 file /home/chase/psi4conda/share/psi4/basis/aug-cc-pvtz.gbs 

FCHKWriter: !WARNING! method 'MP2'' renamed to label 'MP2'.
FCHKWriter: Writing acet-esp.fchk with label ' MP2 Density'.

    Psi4 stopped on: Thursday, 03 November 2022 11:59AM
    Psi4 wall time for execution: 0:00:25.26

*** Psi4 exiting successfully. Buy a developer a beer!
