2022-11-03:11:58:58,682 INFO     [psi4.driver.task_planner:266] PLANNING Atomic:  keywords={'CUBEPROP_TASKS': ['ESP'], 'FREEZE_CORE': 'TRUE', 'PROPERTIES_ORIGIN': ['COM'], 'function_kwargs': {}}
2022-11-03:11:58:58,684 INFO     [psi4.driver.driver:774] Compute properties(): method=mp2, basis=6-311g**, molecule=default, nre=111.29172367070018
2022-11-03:11:58:59,987 INFO     [psi4.driver.driver:777] Return properties(): -227.97076908537153
M. Scheurer,
    R. A. Shaw, J. B. Schriber, Y. Xie, Z. L. Glick, D. A. Sirianni,
    J. S. O'Brien, J. M. Waldrop, A. Kumar, E. G. Hohenstein,
    B. P. Pritchard, B. R. Brooks, H. F. Schaefer III, A. Yu. Sokolov,
    K. Patkowski, A. E. DePrince III, U. Bozkaya, R. A. King,
    F. A. Evangelista, J. M. Turney, T. D. Crawford, C. D. Sherrill,
    J. Chem. Phys. 152(18) 184108 (2020). https://doi.org/10.1063/5.0006002

                            Additional Code Authors
    E. T. Seidl, C. L. Janssen, E. F. Valeev, M. L. Leininger,
    J. F. Gonthier, R. M. Richard, H. R. McAlexander, M. Saitow, X. Wang,
    P. Verma, M. H. Lechner, and A. Jiang

             Previous Authors, Complete List of Code Contributors,
                       and Citations for Specific Modules
    https://github.com/psi4/psi4/blob/master/codemeta.json
    https://github.com/psi4/psi4/graphs/contributors
    http://psicode.org/psi4manual/master/introduction.html#citing-psifour

    -----------------------------------------------------------------------


    Psi4 started on: Thursday, 03 November 2022 11:58AM

    Process ID: 1689
    Host:       DESKTOP-26BCFJT
    PSIDATADIR: /home/chase/psi4conda/share/psi4
    Memory:     500.0 MiB
    Threads:    1
    
  ==> Input File <==

--------------------------------------------------------------------------
molecule { 
-1 1
C -1.418205535941 -0.204168110331 -0.056007879949
C 0.12374268479 0.024075105346 0.004138228874
O 0.51096645217 1.219523352752 -0.116830569671
O 0.79882610667 -1.031398028614 0.168571397582
H -1.960135097029 0.735075607817 -0.199794023579
H -1.657914850806 -0.893368187456 -0.873904028267
H -1.756361047088 -0.683056276009 0.870136614755
no_reorient
}
memory 5GB
set_num_threads(6)
psi4_io.set_default_path("/home/chase/temp/Psi4-acet")
set freeze_core True
set PROPERTIES_ORIGIN ["COM"]
set cubeprop_tasks ['esp']
set basis 6-311G** 
E, wfn = properties('mp2',properties=['dipole'],return_wfn=True)
cubeprop(wfn)
fchk(wfn, "acet-dma.fchk")
clean()
--------------------------------------------------------------------------

  Memory set to   4.657 GiB by Python driver.
  Threads set to 6 by Python driver.
    SCF Algorithm Type (re)set to DF.

*** tstart() called on DESKTOP-26BCFJT
*** at Thu Nov  3 11:58:58 2022

   => Loading Basis Set <=

    Name: 6-311G**
    Role: ORBITAL
    Keyword: BASIS
    atoms 1-2 entry C          line   113 file /home/chase/psi4conda/share/psi4/basis/6-311gss.gbs 
    atoms 3-4 entry O          line   151 file /home/chase/psi4conda/share/psi4/basis/6-311gss.gbs 
    atoms 5-7 entry H          line    32 file /home/chase/psi4conda/share/psi4/basis/6-311gss.gbs 


         ---------------------------------------------------------
                                   SCF
               by Justin Turney, Rob Parrish, Andy Simmonett
                          and Daniel G. A. Smith
                              RHF Reference
                        6 Threads,   4768 MiB Core
         ---------------------------------------------------------

  ==> Geometry <==

    Molecular point group: c1
    Full point group: C1

    Geometry (in Angstrom), charge = -1, multiplicity = 1:

       Center              X                  Y                   Z               Mass       
    ------------   -----------------  -----------------  -----------------  -----------------
         C           -1.418205535941    -0.204168110331    -0.056007879949    12.000000000000
         C            0.123742684790     0.024075105346     0.004138228874    12.000000000000
         O            0.510966452170     1.219523352752    -0.116830569671    15.994914619570
         O            0.798826106670    -1.031398028614     0.168571397582    15.994914619570
         H           -1.960135097029     0.735075607817    -0.199794023579     1.007825032230
         H           -1.657914850806    -0.893368187456    -0.873904028267     1.007825032230
         H           -1.756361047088    -0.683056276009     0.870136614755     1.007825032230

  Running in c1 symmetry.

  Rotational constants: A =      0.37490  B =      0.33407  C =      0.18263 [cm^-1]
  Rotational constants: A =  11239.16922  B =  10015.26270  C =   5474.98450 [MHz]
  Nuclear repulsion =  111.291723670700193

  Charge       = -1
  Multiplicity = 1
  Electrons    = 32
  Nalpha       = 16
  Nbeta        = 16

  ==> Algorithm <==

  SCF Algorithm Type is DF.
  DIIS enabled.
  MOM disabled.
  Fractional occupation disabled.
  Guess Type is SAD.
  Energy threshold   = 1.00e-10
  Density threshold  = 1.00e-10
  Integral threshold = 1.00e-12

  ==> Primary Basis <==

  Basis Set: 6-311G**
    Blend: 6-311G**
    Number of shells: 44
    Number of basis functions: 90
    Number of Cartesian functions: 94
    Spherical Harmonics?: true
    Max angular momentum: 2

   => Loading Basis Set <=

    Name: (6-311G** AUX)
    Role: JKFIT
    Keyword: DF_BASIS_SCF
    atoms 1-2 entry C          line   125 file /home/chase/psi4conda/share/psi4/basis/cc-pvtz-jkfit.gbs 
    atoms 3-4 entry O          line   229 file /home/chase/psi4conda/share/psi4/basis/cc-pvtz-jkfit.gbs 
    atoms 5-7 entry H          line    51 file /home/chase/psi4conda/share/psi4/basis/cc-pvtz-jkfit.gbs 

  ==> Integral Setup <==

  DFHelper Memory: AOs need 0.028 GiB; user supplied 3.492 GiB. Using in-core AOs.

  ==> MemDFJK: Density-Fitted J/K Matrices <==

    J tasked:                   Yes
    K tasked:                   Yes
    wK tasked:                   No
    OpenMP threads:               6
    Memory [MiB]:              3576
    Algorithm:                 Core
    Schwarz Cutoff:           1E-12
    Mask sparsity (%):       0.7407
    Fitting Condition:        1E-10

   => Auxiliary Basis Set <=

  Basis Set: (6-311G** AUX)
    Blend: CC-PVTZ-JKFIT
    Number of shells: 130
    Number of basis functions: 406
    Number of Cartesian functions: 489
    Spherical Harmonics?: true
    Max angular momentum: 4

  Minimum eigenvalue in the overlap matrix is 4.2958196871E-03.
  Reciprocal condition number of the overlap matrix is 7.2681075422E-04.
    Using symmetric orthogonalization.

  ==> Pre-Iterations <==

  SCF Guess: Superposition of Atomic Densities via on-the-fly atomic UHF (no occupation information).

   -------------------------
    Irrep   Nso     Nmo    
   -------------------------
     A         90      90 
   -------------------------
    Total      90      90
   -------------------------

  ==> Iterations <==

                           Total Energy        Delta E     RMS |[F,P]|

   @DF-RHF iter SAD:  -226.10316991745290   -2.26103e+02   0.00000e+00 
   @DF-RHF iter   1:  -227.09879476973134   -9.95625e-01   7.40143e-03 DIIS/ADIIS
   @DF-RHF iter   2:  -227.22942633745862   -1.30632e-01   4.62685e-03 DIIS/ADIIS
   @DF-RHF iter   3:  -227.28388356065420   -5.44572e-02   5.91153e-04 DIIS/ADIIS
   @DF-RHF iter   4:  -227.28552742007912   -1.64386e-03   1.97077e-04 DIIS/ADIIS
   @DF-RHF iter   5:  -227.28578901400775   -2.61594e-04   3.41943e-05 DIIS
   @DF-RHF iter   6:  -227.28579850640753   -9.49240e-06   6.26418e-06 DIIS
   @DF-RHF iter   7:  -227.28579883846135   -3.32054e-07   2.57562e-06 DIIS
   @DF-RHF iter   8:  -227.28579887221662   -3.37553e-08   9.39836e-07 DIIS
   @DF-RHF iter   9:  -227.28579887620074   -3.98413e-09   2.78627e-07 DIIS
   @DF-RHF iter  10:  -227.28579887683938   -6.38636e-10   1.08299e-07 DIIS
   @DF-RHF iter  11:  -227.28579887697552   -1.36140e-10   3.30566e-08 DIIS
   @DF-RHF iter  12:  -227.28579887699260   -1.70814e-11   6.95750e-09 DIIS
   @DF-RHF iter  13:  -227.28579887699314   -5.40012e-13   1.38187e-09 DIIS
   @DF-RHF iter  14:  -227.28579887699325   -1.13687e-13   2.88148e-10 DIIS
   @DF-RHF iter  15:  -227.28579887699294    3.12639e-13   7.76418e-11 DIIS
  Energy and wave function converged.


  ==> Post-Iterations <==

    Orbital Energies [Eh]
    ---------------------

    Doubly Occupied:                                                      

       1A    -20.257571     2A    -20.254407     3A    -11.118033  
       4A    -11.037149     5A     -1.136925     6A     -1.038839  
       7A     -0.779741     8A     -0.495546     9A     -0.401742  
      10A     -0.398707    11A     -0.395316    12A     -0.345039  
      13A     -0.300185    14A     -0.183229    15A     -0.173641  
      16A     -0.167335  

    Virtual:                                                              

      17A      0.325355    18A      0.371776    19A      0.384090  
      20A      0.462384    21A      0.548362    22A      0.636377  
      23A      0.655725    24A      0.658516    25A      0.712942  
      26A      0.843629    27A      0.855867    28A      0.948866  
      29A      0.968433    30A      0.969689    31A      0.981924  
      32A      1.070310    33A      1.079589    34A      1.182809  
      35A      1.238630    36A      1.245307    37A      1.321851  
      38A      1.391347    39A      1.397597    40A      1.435077  
      41A      1.484949    42A      1.648002    43A      1.832049  
      44A      1.888462    45A      1.909807    46A      1.928038  
      47A      1.939477    48A      1.943553    49A      1.981294  
      50A      2.006934    51A      2.198783    52A      2.288617  
      53A      2.296093    54A      2.378090    55A      2.454200  
      56A      2.542445    57A      2.692594    58A      2.784928  
      59A      2.871134    60A      2.907510    61A      2.962406  
      62A      3.050501    63A      3.075602    64A      3.200708  
      65A      3.263239    66A      3.478450    67A      3.491018  
      68A      3.521581    69A      3.553034    70A      3.604933  
      71A      3.808281    72A      3.895251    73A      3.941536  
      74A      4.017130    75A      4.092285    76A      4.265530  
      77A      4.354001    78A      4.415488    79A      4.590313  
      80A      4.770559    81A      5.690385    82A      5.740979  
      83A      5.743988    84A      5.829313    85A      6.247058  
      86A      6.549693    87A     25.120150    88A     25.249873  
      89A     51.860336    90A     51.952439  

    Final Occupation by Irrep:
              A 
    DOCC [    16 ]

  @DF-RHF Final Energy:  -227.28579887699294

   => Energetics <=

    Nuclear Repulsion Energy =            111.2917236707001933
    One-Electron Energy =                -540.1882363385643657
    Two-Electron Energy =                 201.6107137908712161
    Total Energy =                       -227.2857988769929420

Computation Completed

*** tstop() called on DESKTOP-26BCFJT at Thu Nov  3 11:58:59 2022
Module time:
	user time   =       3.27 seconds =       0.05 minutes
	system time =       0.20 seconds =       0.00 minutes
	total time  =          1 seconds =       0.02 minutes
Total time:
	user time   =       3.27 seconds =       0.05 minutes
	system time =       0.20 seconds =       0.00 minutes
	total time  =          1 seconds =       0.02 minutes
   => Loading Basis Set <=

    Name: (6-311G** AUX)
    Role: RIFIT
    Keyword: DF_BASIS_MP2
    atoms 1-2 entry C          line   209 file /home/chase/psi4conda/share/psi4/basis/cc-pvtz-ri.gbs 
    atoms 3-4 entry O          line   305 file /home/chase/psi4conda/share/psi4/basis/cc-pvtz-ri.gbs 
    atoms 5-7 entry H          line    19 file /home/chase/psi4conda/share/psi4/basis/cc-pvtz-ri.gbs 


*** tstart() called on DESKTOP-26BCFJT
*** at Thu Nov  3 11:58:59 2022


  //>>>>>>>>>>>>>>>>>>>>>>>>>>>>>>>>>>>//
  //               DFMP2               //
  //<<<<<<<<<<<<<<<<<<<<<<<<<<<<<<<<<<<//

	 --------------------------------------------------------
	                          DF-MP2                         
	      2nd-Order Density-Fitted Moller-Plesset Theory     
	              RMP2 Wavefunction,   6 Threads             
	                                                         
	        Rob Parrish, Justin Turney, Andy Simmonett,      
	           Ed Hohenstein, and C. David Sherrill          
	 --------------------------------------------------------

   => Auxiliary Basis Set <=

  Basis Set: (6-311G** AUX)
    Blend: CC-PVTZ-RI
    Number of shells: 122
    Number of basis functions: 414
    Number of Cartesian functions: 509
    Spherical Harmonics?: true
    Max angular momentum: 4

	 --------------------------------------------------------
	                 NBF =    90, NAUX =   414
	 --------------------------------------------------------
	   CLASS    FOCC     OCC    AOCC    AVIR     VIR    FVIR
	   PAIRS       4      16      12      74      74       0
	 --------------------------------------------------------

  DFHelper Memory: AOs need 0.028 GiB; user supplied 3.492 GiB. Using in-core AOs.


         ------------------------------------------------------------
                                     CPHF                           
                                  Rob Parrish                       
         ------------------------------------------------------------

  ==> Geometry <==

    Molecular point group: c1
    Full point group: C1

    Geometry (in Angstrom), charge = -1, multiplicity = 1:

       Center              X                  Y                   Z               Mass       
    ------------   -----------------  -----------------  -----------------  -----------------
         C           -1.418205535941    -0.204168110331    -0.056007879949    12.000000000000
         C            0.123742684790     0.024075105346     0.004138228874    12.000000000000
         O            0.510966452170     1.219523352752    -0.116830569671    15.994914619570
         O            0.798826106670    -1.031398028614     0.168571397582    15.994914619570
         H           -1.960135097029     0.735075607817    -0.199794023579     1.007825032230
         H           -1.657914850806    -0.893368187456    -0.873904028267     1.007825032230
         H           -1.756361047088    -0.683056276009     0.870136614755     1.007825032230

  Nuclear repulsion =  111.291723670700193
  Reference energy  = -227.285798876992942

  ==> Basis Set <==

  Basis Set: 6-311G**
    Blend: 6-311G**
    Number of shells: 44
    Number of basis functions: 90
    Number of Cartesian functions: 94
    Spherical Harmonics?: true
    Max angular momentum: 2

  ==> CGRSolver (by Rob Parrish) <==

   Number of roots    =         1
   Preconditioning    =    JACOBI
   Convergence cutoff =     1E-06
   Maximum iterations =       100

  ==> CPHFRHamiltonian (by Rob Parrish) <== 

  ==> MemDFJK: Density-Fitted J/K Matrices <==

    J tasked:                   Yes
    K tasked:                   Yes
    wK tasked:                   No
    OpenMP threads:               6
    Memory [MiB]:              3576
    Algorithm:                 Core
    Schwarz Cutoff:           1E-12
    Mask sparsity (%):       0.7407
    Fitting Condition:        1E-10

   => Auxiliary Basis Set <=

  Basis Set: (6-311G** AUX)
    Blend: CC-PVTZ-JKFIT
    Number of shells: 130
    Number of basis functions: 406
    Number of Cartesian functions: 489
    Spherical Harmonics?: true
    Max angular momentum: 4

  ==> CPHF Iterations <==

  => Iterations <=

             Iter  Converged  Remaining    Residual
  CGR           1          0          1   1.202E-01
  CGR           2          0          1   3.540E-02
  CGR           3          0          1   1.345E-02
  CGR           4          0          1   2.977E-03
  CGR           5          0          1   7.171E-04
  CGR           6          0          1   2.994E-04
  CGR           7          0          1   5.569E-05
  CGR           8          0          1   1.034E-05
  CGR           9          0          1   3.047E-06
  CGR          10          0          1   1.011E-06
  CGR          11          1          0   3.174E-07

    CGRSolver converged.

	-----------------------------------------------------------
	 ==================> DF-MP2 Energies <==================== 
	-----------------------------------------------------------
	 Reference Energy          =    -227.2857988769929420 [Eh]
	 Singles Energy            =      -0.0000000000000000 [Eh]
	 Same-Spin Energy          =      -0.1804667603332840 [Eh]
	 Opposite-Spin Energy      =      -0.5045034480453137 [Eh]
	 Correlation Energy        =      -0.6849702083785976 [Eh]
	 Total Energy              =    -227.9707690853715292 [Eh]
	-----------------------------------------------------------
	 ================> DF-SCS-MP2 Energies <================== 
	-----------------------------------------------------------
	 SCS Same-Spin Scale       =       0.3333333333333333 [-]
	 SCS Opposite-Spin Scale   =       1.2000000000000000 [-]
	 SCS Same-Spin Energy      =      -0.0601555867777613 [Eh]
	 SCS Opposite-Spin Energy  =      -0.6054041376543764 [Eh]
	 SCS Correlation Energy    =      -0.6655597244321377 [Eh]
	 SCS Total Energy          =    -227.9513586014250848 [Eh]
	-----------------------------------------------------------



Properties will be evaluated at   0.000000,  -0.000000,   0.000000 [a0]

Properties computed using the MP2 density matrix


 Multipole Moments:

 ------------------------------------------------------------------------------------
     Multipole            Electronic (a.u.)      Nuclear  (a.u.)        Total (a.u.)
 ------------------------------------------------------------------------------------

 L = 1.  Multiply by 2.5417464519 to convert [e a0] to [Debye]
 Dipole X            :          3.9775104           -5.0320527           -1.0545423
 Dipole Y            :          0.6367009           -0.7878349           -0.1511341
 Dipole Z            :          0.1489671           -0.1905840           -0.0416170
 Magnitude           :                                                    1.0661299

 ------------------------------------------------------------------------------------

*** tstop() called on DESKTOP-26BCFJT at Thu Nov  3 11:58:59 2022
Module time:
	user time   =       3.51 seconds =       0.06 minutes
	system time =       0.09 seconds =       0.00 minutes
	total time  =          0 seconds =       0.00 minutes
Total time:
	user time   =       7.01 seconds =       0.12 minutes
	system time =       0.31 seconds =       0.01 minutes
	total time  =          1 seconds =       0.02 minutes
  ==> One Electron Grid Properties (v2.0) <==

  ==> CubicScalarGrid <==

    Filepath     = .
    Total Points =           248472
    XYZ Blocking =               10
    X Points     =               68
    Y Points     =               63
    Z Points     =               58
    X Spacing    =        2.000E-01
    Y Spacing    =        2.000E-01
    Z Spacing    =        2.000E-01
    X Minimum    =       -7.797E+00
    Y Minimum    =       -6.022E+00
    Z Minimum    =       -5.704E+00
    X Maximum    =        5.603E+00
    Y Maximum    =        6.378E+00
    Z Maximum    =        5.696E+00

  Basis Set: 6-311G**
    Blend: 6-311G**
    Number of shells: 44
    Number of basis functions: 90
    Number of Cartesian functions: 94
    Spherical Harmonics?: true
    Max angular momentum: 2

*********************************************************************************************************************
When computing potential integrals with different bra and ket basis, the atom definition is taken from the bra basis.
*********************************************************************************************************************
*********************************************************************************************************************
When computing potential integrals with different bra and ket basis, the atom definition is taken from the bra basis.
*********************************************************************************************************************
*********************************************************************************************************************
When computing potential integrals with different bra and ket basis, the atom definition is taken from the bra basis.
*********************************************************************************************************************
*********************************************************************************************************************
When computing potential integrals with different bra and ket basis, the atom definition is taken from the bra basis.
*********************************************************************************************************************
*********************************************************************************************************************
When computing potential integrals with different bra and ket basis, the atom definition is taken from the bra basis.
*********************************************************************************************************************
*********************************************************************************************************************
When computing potential integrals with different bra and ket basis, the atom definition is taken from the bra basis.
*********************************************************************************************************************
   => Loading Basis Set <=

    Name: 6-311G**
    Role: ORBITAL
    Keyword: BASIS
    atoms 1-2 entry C          line   113 file /home/chase/psi4conda/share/psi4/basis/6-311gss.gbs 
    atoms 3-4 entry O          line   151 file /home/chase/psi4conda/share/psi4/basis/6-311gss.gbs 
    atoms 5-7 entry H          line    32 file /home/chase/psi4conda/share/psi4/basis/6-311gss.gbs 

FCHKWriter: !WARNING! method 'MP2'' renamed to label 'MP2'.
FCHKWriter: Writing acet-dma.fchk with label ' MP2 Density'.

    Psi4 stopped on: Thursday, 03 November 2022 11:59AM
    Psi4 wall time for execution: 0:00:03.50

*** Psi4 exiting successfully. Buy a developer a beer!
