Generated by Psi4
        SP                        DF-MP2                      6-311G**
Number of atoms                            I                7
Charge                                     I               -1
Multiplicity                               I                1
Number of electrons                        I               32
Number of alpha electrons                  I               16
Number of beta electrons                   I               16
Number of basis functions                  I               90
Number of independent functions            I               90
Atomic numbers                             I   N=           7
           6           6           8           8           1           1
           1
Nuclear charges                            R   N=           7
  6.00000000e+00  6.00000000e+00  8.00000000e+00  8.00000000e+00  1.00000000e+00
  1.00000000e+00  1.00000000e+00
Current cartesian coordinates              R   N=          21
 -2.68002005e+00 -3.85821812e-01 -1.05839554e-01  2.33839784e-01  4.54953555e-02
  7.82011922e-03  9.65586654e-01  2.30456514e+00 -2.20777780e-01  1.50956256e+00
 -1.94905980e+00  3.18553774e-01 -3.70411850e+00  1.38909158e+00 -3.77555986e-01
 -3.13300501e+00 -1.68822120e+00 -1.65143927e+00 -3.31904136e+00 -1.29078929e+00
  1.64431989e+00
Integer atomic weights                     I   N=           7
          12          12          16          16           1           1
           1
Real atomic weights                        R   N=           7
  1.20000000e+01  1.20000000e+01  1.59949146e+01  1.59949146e+01  1.00782503e+00
  1.00782503e+00  1.00782503e+00
Number of primitive shells                 I               86
Number of contracted shells                I               44
Pure/Cartesian d shells                    I                0
Pure/Cartesian f shells                    I                0
Highest angular momentum                   I                2
Largest degree of contraction              I                6
Shell types                                I   N=          44
           0           0           1           0           1           0
           1          -2           0           0           1           0
           1           0           1          -2           0           0
           1           0           1           0           1          -2
           0           0           1           0           1           0
           1          -2           0           0           0           1
           0           0           0           1           0           0
           0           1
Number of primitives per shell             I   N=          44
           6           3           3           1           1           1
           1           1           6           3           3           1
           1           1           1           1           6           3
           3           1           1           1           1           1
           6           3           3           1           1           1
           1           1           3           1           1           1
           3           1           1           1           3           1
           1           1
Shell to atom map                          I   N=          44
           1           1           1           1           1           1
           1           1           2           2           2           2
           2           2           2           2           3           3
           3           3           3           3           3           3
           4           4           4           4           4           4
           4           4           5           5           5           5
           6           6           6           6           7           7
           7           7
Primitive exponents                        R   N=          86
  4.56324000e+03  6.82024000e+02  1.54973000e+02  4.44553000e+01  1.30290000e+01
  1.82773000e+00  2.09642000e+01  4.80331000e+00  1.45933000e+00  2.09642000e+01
  4.80331000e+00  1.45933000e+00  4.83456000e-01  4.83456000e-01  1.45585000e-01
  1.45585000e-01  6.26000000e-01  4.56324000e+03  6.82024000e+02  1.54973000e+02
  4.44553000e+01  1.30290000e+01  1.82773000e+00  2.09642000e+01  4.80331000e+00
  1.45933000e+00  2.09642000e+01  4.80331000e+00  1.45933000e+00  4.83456000e-01
  4.83456000e-01  1.45585000e-01  1.45585000e-01  6.26000000e-01  8.58850000e+03
  1.29723000e+03  2.99296000e+02  8.73771000e+01  2.56789000e+01  3.74004000e+00
  4.21175000e+01  9.62837000e+00  2.85332000e+00  4.21175000e+01  9.62837000e+00
  2.85332000e+00  9.05661000e-01  9.05661000e-01  2.55611000e-01  2.55611000e-01
  1.29200000e+00  8.58850000e+03  1.29723000e+03  2.99296000e+02  8.73771000e+01
  2.56789000e+01  3.74004000e+00  4.21175000e+01  9.62837000e+00  2.85332000e+00
  4.21175000e+01  9.62837000e+00  2.85332000e+00  9.05661000e-01  9.05661000e-01
  2.55611000e-01  2.55611000e-01  1.29200000e+00  3.38650000e+01  5.09479000e+00
  1.15879000e+00  3.25840000e-01  1.02741000e-01  7.50000000e-01  3.38650000e+01
  5.09479000e+00  1.15879000e+00  3.25840000e-01  1.02741000e-01  7.50000000e-01
  3.38650000e+01  5.09479000e+00  1.15879000e+00  3.25840000e-01  1.02741000e-01
  7.50000000e-01
Contraction coefficients                   R   N=          86
  1.96665025e-03  1.52306019e-02  7.61269097e-02  2.60801033e-01  6.16462078e-01
  2.21006028e-01  1.14660081e-01  9.19999648e-01 -3.03068213e-03  4.02486927e-02
  2.37593957e-01  8.15853851e-01  1.00000000e+00  1.00000000e+00  1.00000000e+00
  1.00000000e+00  1.00000000e+00  1.96665025e-03  1.52306019e-02  7.61269097e-02
  2.60801033e-01  6.16462078e-01  2.21006028e-01  1.14660081e-01  9.19999648e-01
 -3.03068213e-03  4.02486927e-02  2.37593957e-01  8.15853851e-01  1.00000000e+00
  1.00000000e+00  1.00000000e+00  1.00000000e+00  1.00000000e+00  1.89515008e-03
  1.43859006e-02  7.07320031e-02  2.40001011e-01  5.94797026e-01  2.80802012e-01
  1.13889012e-01  9.20811101e-01 -3.27447036e-03  3.65113974e-02  2.37152983e-01
  8.19701941e-01  1.00000000e+00  1.00000000e+00  1.00000000e+00  1.00000000e+00
  1.00000000e+00  1.89515008e-03  1.43859006e-02  7.07320031e-02  2.40001011e-01
  5.94797026e-01  2.80802012e-01  1.13889012e-01  9.20811101e-01 -3.27447036e-03
  3.65113974e-02  2.37152983e-01  8.19701941e-01  1.00000000e+00  1.00000000e+00
  1.00000000e+00  1.00000000e+00  1.00000000e+00  2.54938145e-02  1.90373109e-01
  8.52161486e-01  1.00000000e+00  1.00000000e+00  1.00000000e+00  2.54938145e-02
  1.90373109e-01  8.52161486e-01  1.00000000e+00  1.00000000e+00  1.00000000e+00
  2.54938145e-02  1.90373109e-01  8.52161486e-01  1.00000000e+00  1.00000000e+00
  1.00000000e+00
Coordinates of each shell                  R   N=         132
 -2.68002005e+00 -3.85821812e-01 -1.05839554e-01 -2.68002005e+00 -3.85821812e-01
 -1.05839554e-01 -2.68002005e+00 -3.85821812e-01 -1.05839554e-01 -2.68002005e+00
 -3.85821812e-01 -1.05839554e-01 -2.68002005e+00 -3.85821812e-01 -1.05839554e-01
 -2.68002005e+00 -3.85821812e-01 -1.05839554e-01 -2.68002005e+00 -3.85821812e-01
 -1.05839554e-01 -2.68002005e+00 -3.85821812e-01 -1.05839554e-01  2.33839784e-01
  4.54953555e-02  7.82011922e-03  2.33839784e-01  4.54953555e-02  7.82011922e-03
  2.33839784e-01  4.54953555e-02  7.82011922e-03  2.33839784e-01  4.54953555e-02
  7.82011922e-03  2.33839784e-01  4.54953555e-02  7.82011922e-03  2.33839784e-01
  4.54953555e-02  7.82011922e-03  2.33839784e-01  4.54953555e-02  7.82011922e-03
  2.33839784e-01  4.54953555e-02  7.82011922e-03  9.65586654e-01  2.30456514e+00
 -2.20777780e-01  9.65586654e-01  2.30456514e+00 -2.20777780e-01  9.65586654e-01
  2.30456514e+00 -2.20777780e-01  9.65586654e-01  2.30456514e+00 -2.20777780e-01
  9.65586654e-01  2.30456514e+00 -2.20777780e-01  9.65586654e-01  2.30456514e+00
 -2.20777780e-01  9.65586654e-01  2.30456514e+00 -2.20777780e-01  9.65586654e-01
  2.30456514e+00 -2.20777780e-01  1.50956256e+00 -1.94905980e+00  3.18553774e-01
  1.50956256e+00 -1.94905980e+00  3.18553774e-01  1.50956256e+00 -1.94905980e+00
  3.18553774e-01  1.50956256e+00 -1.94905980e+00  3.18553774e-01  1.50956256e+00
 -1.94905980e+00  3.18553774e-01  1.50956256e+00 -1.94905980e+00  3.18553774e-01
  1.50956256e+00 -1.94905980e+00  3.18553774e-01  1.50956256e+00 -1.94905980e+00
  3.18553774e-01 -3.70411850e+00  1.38909158e+00 -3.77555986e-01 -3.70411850e+00
  1.38909158e+00 -3.77555986e-01 -3.70411850e+00  1.38909158e+00 -3.77555986e-01
 -3.70411850e+00  1.38909158e+00 -3.77555986e-01 -3.13300501e+00 -1.68822120e+00
 -1.65143927e+00 -3.13300501e+00 -1.68822120e+00 -1.65143927e+00 -3.13300501e+00
 -1.68822120e+00 -1.65143927e+00 -3.13300501e+00 -1.68822120e+00 -1.65143927e+00
 -3.31904136e+00 -1.29078929e+00  1.64431989e+00 -3.31904136e+00 -1.29078929e+00
  1.64431989e+00 -3.31904136e+00 -1.29078929e+00  1.64431989e+00 -3.31904136e+00
 -1.29078929e+00  1.64431989e+00
Total Energy                               R     -2.279707690853715e+02
Alpha Orbital Energies                     R   N=          90
 -2.02575715e+01 -2.02544066e+01 -1.11180331e+01 -1.10371492e+01 -1.13692499e+00
 -1.03883869e+00 -7.79740848e-01 -4.95545786e-01 -4.01741606e-01 -3.98707327e-01
 -3.95315968e-01 -3.45038824e-01 -3.00184728e-01 -1.83228554e-01 -1.73641273e-01
 -1.67335417e-01  3.25354782e-01  3.71775763e-01  3.84090405e-01  4.62383708e-01
  5.48361848e-01  6.36377378e-01  6.55724889e-01  6.58515721e-01  7.12942454e-01
  8.43628983e-01  8.55867369e-01  9.48865771e-01  9.68433272e-01  9.69688689e-01
  9.81923577e-01  1.07031006e+00  1.07958889e+00  1.18280912e+00  1.23863036e+00
  1.24530718e+00  1.32185106e+00  1.39134655e+00  1.39759684e+00  1.43507679e+00
  1.48494865e+00  1.64800217e+00  1.83204874e+00  1.88846232e+00  1.90980701e+00
  1.92803833e+00  1.93947670e+00  1.94355306e+00  1.98129426e+00  2.00693386e+00
  2.19878286e+00  2.28861748e+00  2.29609255e+00  2.37808990e+00  2.45419960e+00
  2.54244497e+00  2.69259449e+00  2.78492840e+00  2.87113442e+00  2.90750979e+00
  2.96240647e+00  3.05050053e+00  3.07560178e+00  3.20070830e+00  3.26323867e+00
  3.47844956e+00  3.49101812e+00  3.52158076e+00  3.55303433e+00  3.60493321e+00
  3.80828074e+00  3.89525088e+00  3.94153563e+00  4.01712998e+00  4.09228497e+00
  4.26552950e+00  4.35400088e+00  4.41548758e+00  4.59031300e+00  4.77055913e+00
  5.69038455e+00  5.74097911e+00  5.74398796e+00  5.82931279e+00  6.24705815e+00
  6.54969329e+00  2.51201496e+01  2.52498732e+01  5.18603363e+01  5.19524388e+01
Alpha MO coefficients                      R   N=        8100
  9.67128593e-07  3.81016471e-06 -8.49628045e-06  1.82598156e-06 -6.95501476e-07
 -1.68204257e-05  1.63246925e-05 -1.79794723e-05  3.07321822e-06  2.45863221e-05
  7.93014883e-05 -2.06587587e-04  2.92529415e-05 -6.45455269e-06  2.75917954e-06
  1.02064399e-06  2.29836958e-05 -6.92896848e-06 -7.74712114e-08 -5.71373745e-05
  2.40116043e-05  5.95527870e-05 -5.75749182e-06  2.22339673e-04  9.00127025e-05
  3.13844427e-04 -3.24134586e-05  3.86305207e-04  1.53193463e-04  6.61912896e-04
 -7.04583745e-05 -5.29151331e-05 -1.50423197e-05 -2.00721577e-05 -1.26828250e-04
  1.09849308e-04  5.51457950e-01  4.71678227e-01 -4.77731185e-04 -1.43539960e-03
  1.44592344e-04  5.51221968e-03  1.55208691e-04  5.01551220e-04 -5.11979544e-05
 -1.01542986e-03  5.54148792e-05  1.42517440e-04 -1.38777395e-05 -6.55853512e-05
  1.72273278e-05 -6.24667442e-06  8.59199684e-05 -4.84095342e-05 -2.95098968e-03
 -2.52065178e-03 -1.44080145e-06 -2.23678871e-05  2.59166304e-06 -6.07867925e-05
  1.02977848e-05  3.50728485e-05 -3.60817967e-06  2.34450706e-04 -1.26934718e-04
 -4.43434391e-05 -1.88934415e-06 -1.96122628e-06  1.19536961e-06 -1.40534968e-06
 -3.43690408e-06 -9.91015302e-06 -3.88132878e-06  6.17541558e-05  7.73468746e-05
 -5.75298923e-06 -1.79466051e-05  1.84718200e-06 -3.15707249e-07 -4.36938622e-06
 -2.21740989e-05  5.97767083e-06  1.36622901e-05 -5.24688078e-06 -3.20151860e-07
 -4.30412160e-06 -2.21909736e-05  5.51635466e-06  1.45795663e-05  2.49190045e-06
  1.82798813e-06  6.20105884e-07 -6.60208140e-06 -3.48024580e-06  3.36524238e-08
 -2.51347949e-05 -6.30298820e-06  1.89733063e-06 -5.09124673e-07  2.76136489e-04
  6.53792779e-05  1.25594189e-04 -1.10753522e-05  2.16783211e-06 -2.91441147e-06
  2.32785937e-06  4.00670157e-06  2.42467611e-05  7.09727017e-08 -5.84405151e-05
  3.72013113e-05 -5.13146533e-05  8.24795280e-06  2.35339294e-04  1.69210966e-04
 -2.74794477e-04  4.24305937e-05  2.65729097e-04  3.76895126e-04 -5.44876739e-04
  8.64587261e-05 -4.89751085e-05  2.10785505e-05 -2.62574362e-05 -5.46615576e-05
 -1.59848631e-04  2.95395195e-03  2.52992189e-03 -1.34507325e-05  6.30075446e-06
 -1.51672604e-06 -1.26706873e-06  2.54025976e-05 -2.78180986e-05  4.76975007e-06
  2.19494325e-04 -1.50267124e-04  1.08184511e-05 -9.81026475e-06 -3.29021573e-06
 -9.83969704e-07 -1.13397848e-06 -7.26875182e-06  7.53323533e-06  5.51457684e-01
  4.71677503e-01 -8.26854311e-04  1.26386722e-03 -1.97893654e-04  5.51270906e-03
  2.76558795e-04 -4.43921121e-04  6.87125971e-05 -9.83583632e-04  7.95202846e-05
 -1.23665011e-04  1.93099977e-05 -5.79722994e-05 -1.46154345e-06 -1.32300378e-06
  4.97891959e-05  8.36957954e-05  7.70411702e-06 -4.72186964e-05 -6.89104048e-06
  1.22608289e-05  2.56439387e-06  3.55441677e-07  1.18749702e-05 -6.81431676e-05
  1.05684970e-05 -2.06597398e-05 -1.50380505e-05 -6.39407842e-06  1.18910997e-05
 -6.84257811e-05  1.03672597e-05 -2.14669149e-05 -1.34118388e-05  7.49150522e-06
  1.79144954e-03  1.42269455e-03  5.95749614e-05  1.48314256e-05  1.57013206e-06
  2.61360415e-04  4.86884799e-04  4.55942966e-05  2.22069876e-05 -1.38067262e-04
  1.93261384e-05  2.10581555e-05 -1.53878961e-06 -8.41335002e-05  1.07974087e-05
  1.37958689e-05  2.21075422e-04  8.27219157e-05  5.63612677e-01  4.66649741e-01
 -2.03726734e-04 -2.27901361e-05 -8.64939091e-06  3.16530485e-03  4.01580209e-04
  5.73390711e-05  1.58413540e-05  3.59660814e-04  1.32918667e-04  2.91871379e-05
  4.07721831e-06 -3.51585908e-04  2.57876025e-05 -1.20046502e-04 -3.40961162e-04
 -8.12004535e-05 -1.42176433e-04 -2.25435081e-04 -8.21263069e-05 -2.24867614e-04
  2.22232143e-05  4.97816705e-04 -1.00777821e-04 -4.41473323e-04  4.70614483e-05
 -3.23346043e-04  3.14774853e-05  1.97485795e-04 -2.18240043e-05 -4.60549903e-05
 -1.22982890e-05 -2.35706338e-05 -1.48930921e-04  7.10238540e-05 -1.41051524e-04
 -2.23686761e-04 -1.35447109e-04  1.93700564e-04 -3.08373099e-05  4.91617128e-04
 -2.05784912e-04  4.04809261e-04 -6.00530508e-05 -2.99022671e-04  6.99084808e-05
 -1.80490401e-04  2.55350764e-05 -4.55974685e-05  1.54246798e-05 -2.90204150e-05
 -9.55131470e-05 -1.34879927e-04  2.05069668e-05  1.26337140e-04 -1.66401116e-05
  3.60817534e-05 -6.73346100e-05  1.01738329e-05  3.03609578e-06  9.84549847e-05
  1.47621775e-05  7.17075937e-06  2.23949312e-05  4.10885723e-05  2.98747645e-06
  9.83984015e-05  1.48852097e-05  1.19111038e-05  1.20988072e-05 -4.41044188e-05
  5.63357640e-01  4.66560632e-01 -5.20928235e-04 -1.90765274e-04 -6.24134849e-06
  4.29991804e-03  2.91933981e-04  1.13266116e-04  2.83104286e-06 -1.54846209e-03
 -2.65471745e-04 -2.26935045e-05 -1.25236011e-05 -1.97527316e-05  2.53700996e-06
 -3.20894310e-06  8.14130668e-06 -4.29371100e-07 -1.87727258e-03 -1.59475220e-03
 -1.26812921e-04 -1.78498962e-05 -5.05960773e-06  1.81076072e-04 -2.00889036e-04
 -2.57190982e-05 -8.32699503e-06  5.06124208e-04 -2.00317575e-04 -1.51558273e-05
 -9.58319496e-06 -1.35067547e-05  2.78193199e-06  9.04018197e-06  8.48293375e-05
  2.78875792e-05  4.03674528e-06  6.38195138e-06  1.02015527e-05  6.21577075e-06
 -1.59981630e-07 -1.54702803e-05  2.07053271e-05  3.29159212e-06  7.74717122e-07
 -3.13039131e-05  2.15882372e-06  6.71568366e-06 -6.51197862e-07 -1.90861317e-06
 -5.63761800e-08  1.39227923e-07  2.86591308e-06  3.34509280e-06  4.02884853e-06
  6.84488656e-06  1.00233700e-05 -4.98468522e-06  1.16624460e-06 -2.17513665e-05
  2.16196212e-05  7.47313466e-06  3.32210527e-07  9.72647229e-07 -1.29556266e-05
 -8.18212134e-06  2.58573863e-07 -3.89421723e-06  8.10061552e-07 -4.17110262e-07
  4.12145891e-06 -1.60713192e-06  3.56781768e-04  2.00321982e-04  2.07096621e-04
  1.37097932e-05 -3.95968684e-05  5.57213407e-06  3.51066166e-04  2.67728237e-04
  1.95069741e-04  1.44262952e-05  3.58374382e-05  4.80137270e-05  3.51046036e-04
  2.67947690e-04  1.95158062e-04  2.00779775e-05  2.36629247e-05 -5.32608715e-05
  1.26381160e-02  2.09598618e-02 -1.10661491e-02 -1.66806186e-03 -4.28483562e-04
 -5.58911396e-02 -3.02516620e-02 -3.80519994e-03 -1.26217594e-03  1.43448169e-02
  9.99789876e-03 -8.06684329e-04  6.71869293e-04  3.22758425e-03 -4.36443320e-04
 -4.40459929e-04 -7.94697737e-03 -2.74986350e-03  7.12557753e-02  1.16250212e-01
 -3.69260043e-02 -5.93903202e-03 -1.38325794e-03 -3.02758454e-01 -5.42142187e-02
 -8.73700279e-03 -2.03055403e-03 -7.80442194e-02  2.88248435e-02  5.21872904e-03
  1.00798408e-03  1.95773849e-02 -1.26772570e-03  7.48017797e-03  2.49063855e-02
  5.88537401e-03  7.11902919e-02  1.18657107e-01  1.11367589e-02  3.92764572e-02
 -4.06405638e-03 -3.32849642e-01  1.77771815e-02  6.40805190e-02 -6.65304882e-03
 -2.46843582e-01  2.96469997e-03  2.68592010e-02 -3.04303179e-03  4.91996406e-03
  4.99431857e-04  1.86064615e-03  8.80718811e-03 -4.13346407e-03  6.95909651e-02
  1.15985725e-01  2.02570977e-02 -3.44307644e-02  5.26416246e-03 -3.25251589e-01
  3.25943372e-02 -5.64412785e-02  8.59439453e-03 -2.40315575e-01  9.71903441e-03
 -2.48176649e-02  3.51761316e-03  4.75968935e-03 -1.09125748e-03  2.12733380e-03
  5.57785936e-03  7.71589344e-03 -6.08329623e-03 -1.27405450e-02  2.91280240e-03
 -2.39425420e-03  3.22461858e-03 -5.25055301e-04 -5.49376606e-03 -1.31240911e-02
  5.62393217e-04 -1.22110667e-03 -1.73242158e-03 -2.72334285e-03 -5.49530125e-03
 -1.31298984e-02  5.54649971e-04 -1.53749217e-03 -1.05483693e-03  2.90275283e-03
  6.28945426e-04  1.00949025e-03 -1.21951242e-03  5.67481622e-03 -7.47762208e-04
 -2.79596107e-03 -2.49905738e-03  9.60699955e-03 -1.29096839e-03  2.46112245e-03
 -1.13085861e-03  1.00365990e-02 -1.25966962e-03 -3.34554953e-04 -3.85339584e-04
 -8.28845028e-05 -1.44732453e-03  2.80858856e-03  7.46438210e-04  1.23750420e-03
 -1.43875808e-02  1.12584268e-01 -1.42743286e-02 -3.16220478e-03 -2.13356152e-02
  1.67912748e-01 -2.12824903e-02 -2.52080568e-03  1.92877462e-03 -8.00400461e-03
  1.06511388e-03  5.69456683e-05 -4.22336396e-03  8.60882904e-04 -8.08265067e-03
  3.12874393e-02 -7.98496734e-02 -1.33239586e-01 -1.56606184e-02 -2.95378490e-02
  2.64330583e-03  3.73161945e-01 -2.58528667e-02 -4.60856701e-02  4.04380837e-03
  3.02823457e-01 -1.52535561e-02 -1.77167113e-02  1.25382515e-03 -4.66830872e-03
 -6.63575710e-04 -1.15846125e-03 -4.87861424e-03  7.11837349e-03  8.09167414e-02
  1.35003340e-01  2.29720218e-02 -2.50484986e-02  4.29649052e-03 -3.77867220e-01
  3.72515498e-02 -3.86494736e-02  6.73169552e-03 -3.06501003e-01  1.94183855e-02
 -1.37385635e-02  2.74277389e-03  4.61034207e-03 -1.45294157e-03  1.56885776e-03
  7.84721840e-04  8.61316206e-03  3.03086585e-03 -1.48961972e-04  9.12093780e-04
  5.09461710e-04  7.46119792e-05  1.95824046e-05 -1.92507466e-03 -2.27804590e-03
 -7.02621090e-04 -5.92667384e-04 -3.64500108e-04 -3.55444323e-04 -1.92019030e-03
 -2.28048618e-03 -7.04759600e-04 -6.32888946e-04 -2.77173242e-04  3.62657574e-04
  9.89620437e-02  1.63570990e-01  1.08560276e-04  1.70086810e-03 -2.14513639e-04
 -4.17613687e-01 -1.42616457e-02 -7.27036931e-05 -8.19590877e-04 -2.38692183e-01
  1.96708853e-02 -2.95050804e-03  1.47568531e-03  6.72836708e-04 -1.15895264e-04
 -2.46931342e-04 -2.76991075e-03 -9.18165961e-04  1.97019578e-02  3.33515877e-02
  6.56695163e-02  8.68202155e-03  2.68294693e-03 -9.32071402e-02  1.16422582e-01
  1.55325515e-02  4.73914985e-03 -5.84872746e-02  3.87882589e-02  8.31236334e-03
  1.20063824e-03  4.00384459e-03 -7.43343148e-04 -1.78976993e-03 -1.89143007e-02
 -5.95329860e-03 -1.88319836e-02 -3.15889101e-02  1.50445331e-02 -4.38517994e-04
  9.04247526e-04  9.04810329e-02  2.52007915e-02 -7.76905506e-04  1.51974420e-03
  8.32315597e-02  9.65641896e-03  4.02112976e-03  6.59369110e-05  2.16391199e-04
  2.21260949e-04 -3.37127832e-04 -1.79178121e-03 -2.85135721e-03 -2.00350357e-02
 -3.35959919e-02  1.48687912e-02  4.46860444e-03  3.07548800e-04  9.60343596e-02
  2.43890703e-02  7.41108000e-03  4.94725618e-04  9.14100429e-02  1.12151869e-02
 -1.08591006e-03  7.64702146e-04  2.54554350e-04 -3.83044359e-04 -2.13005437e-04
 -2.97165332e-03  1.58999504e-03 -7.88643002e-02 -1.04521714e-01 -1.63195353e-03
 -8.23777053e-03  1.68348798e-02 -2.49411362e-03 -7.99499800e-02 -1.13188207e-01
 -5.94847607e-03 -4.14382339e-03 -1.22708932e-02 -1.45388444e-02 -7.99606588e-02
 -1.13221211e-01 -5.95465776e-03 -5.89884926e-03 -8.53318988e-03  1.64826574e-02
  1.62072542e-02  2.66320924e-02  1.04927501e-01  1.65183295e-02  3.99658354e-03
 -5.81416395e-02  1.81667651e-01  2.83638906e-02  6.94226626e-03 -1.07814078e-01
  6.08530389e-02  1.91181945e-02  1.15898382e-03 -1.05930856e-02  1.44890795e-03
  6.54679204e-04  2.08516436e-02  6.42140452e-03 -7.29445054e-02 -1.23390644e-01
 -4.08250002e-02 -4.79157023e-03 -1.73811161e-03  3.57689772e-01 -6.13568999e-02
 -7.47558553e-03 -2.57604345e-03  2.03771258e-01 -1.03568739e-01 -2.05985548e-02
 -3.39758145e-03 -9.51652362e-03  8.10908801e-04 -2.50704920e-03 -3.83591013e-03
 -6.38545818e-04  3.84349285e-02  6.49144567e-02 -4.97115572e-02 -8.90265857e-02
  7.82661018e-03 -1.90090437e-01 -7.63624389e-02 -1.29528846e-01  1.11597176e-02
 -2.30330930e-01 -4.55129794e-02 -1.12899985e-01  1.09168873e-02 -4.61147749e-03
 -8.24362958e-04 -1.28422172e-03 -6.31159680e-03  7.73701840e-03  3.82592542e-02
  6.45709177e-02 -6.90180256e-02  7.18454180e-02 -1.24984913e-02 -1.88158443e-01
 -1.04011484e-01  1.03304900e-01 -1.82409091e-02 -2.36707653e-01 -6.98159602e-02
  9.50182217e-02 -1.53149844e-02 -4.44680404e-03  1.50144295e-03 -1.69474078e-03
 -1.65712619e-03 -9.56191242e-03 -4.97348916e-02 -6.93007014e-02 -4.19552957e-02
  1.82238451e-03  7.30181910e-03 -7.73033311e-04 -4.82243458e-02 -6.13752978e-02
 -3.18907330e-02  4.67884461e-03 -3.73954801e-03 -4.84690859e-03 -4.81443782e-02
 -6.12438943e-02 -3.18357117e-02  4.06664463e-03 -2.41204031e-03  6.07707577e-03
  9.66694967e-04  1.70095333e-03  1.45675316e-02 -1.41447979e-01  1.78143099e-02
 -3.94370571e-03  2.29460223e-02 -2.24364448e-01  2.82490858e-02 -2.39797338e-02
  1.23699422e-02 -1.59333208e-01  1.98158610e-02  1.66618739e-02 -3.03011353e-03
  4.79494510e-03  3.95701229e-03  1.31564349e-02 -1.10432513e-03 -1.86585600e-03
  2.53102981e-02 -9.38056237e-02  1.26915049e-02  5.29758093e-03  4.20168749e-02
 -1.53785417e-01  2.08402116e-02  1.37895060e-02 -4.16119559e-03  2.85237430e-02
 -3.60105446e-03  6.24212123e-05 -1.26411204e-03  3.13835975e-04 -2.08676790e-03
  9.46148556e-03 -2.06859764e-02 -3.49904584e-02  7.75066179e-02  6.45689220e-02
 -3.28647378e-03  1.05701200e-01  1.16794656e-01  9.44579873e-02 -4.61056073e-03
  1.18503110e-01  1.08655890e-01  8.48900815e-02 -3.93701115e-03  5.14916107e-03
  7.76190453e-04  8.72162327e-04  2.82600645e-03 -9.42518534e-03  2.37479873e-02
  4.00619512e-02 -8.10901140e-02  6.59256274e-02 -1.24456866e-02 -1.18985557e-01
 -1.21435542e-01  9.64892718e-02 -1.83671834e-02 -1.47739476e-01 -1.07306900e-01
  8.37929404e-02 -1.60584082e-02 -5.60332326e-03  1.71537361e-03 -1.83741501e-03
 -6.70233738e-04 -9.94080241e-03 -1.18579354e-01 -1.79112131e-01 -7.76144949e-02
 -7.50951326e-03  9.50757346e-03 -1.56958850e-03  6.34289391e-02  1.03513295e-01
  4.18597037e-02  3.18775025e-03 -4.19001918e-04  9.09323286e-03  6.33390828e-02
  1.03390119e-01  4.18249833e-02  4.17042824e-03 -2.52790659e-03 -8.31738414e-03
  1.69236601e-05  2.85529493e-05 -8.64835734e-03  1.91742677e-02  1.59581239e-01
 -7.11865076e-05 -1.39427042e-02  3.08644064e-02  2.56892881e-01  4.47801086e-05
 -8.53790933e-03  1.92487013e-02  1.60591166e-01  4.57066339e-03 -7.43810210e-03
 -2.50041533e-02  3.51696254e-03  5.75895632e-04  8.14712206e-05  1.39199793e-04
 -4.86854463e-03  8.98656210e-03  7.58026802e-02 -4.54149902e-04 -8.33158454e-03
  1.54989720e-02  1.30650296e-01 -1.34981565e-04 -4.28657269e-03  8.61655954e-03
  7.20389651e-02  1.94119503e-04 -2.65942937e-03 -2.11084437e-03  4.09084251e-04
 -1.99348510e-04 -8.45512291e-05 -1.42087483e-04 -3.74384149e-03  7.87696534e-03
  6.15797477e-02  4.09529894e-04 -5.93113584e-03  1.24541691e-02  9.77115687e-02
  6.07046129e-04 -5.03091253e-03  1.05129206e-02  8.23616373e-02  1.46194232e-03
 -3.36131839e-03 -8.42245817e-03  1.26822066e-03  9.98882479e-05 -8.54150367e-05
 -1.43392986e-04 -3.77514887e-03  7.19628520e-03  6.47986790e-02  4.10219409e-04
 -5.95345713e-03  1.13753563e-02  1.02087223e-01  6.41054024e-04 -5.10622806e-03
  9.70159121e-03  8.71522358e-02 -2.05964778e-03 -5.54662803e-03  7.25096491e-03
 -5.06419862e-04 -1.07086163e-03 -2.20002427e-04 -3.32302696e-04 -6.12039747e-05
 -5.09653141e-04  1.13363388e-03  9.15831321e-03 -1.19405987e-01 -1.85165776e-01
 -9.60278598e-02 -3.66097489e-03 -1.16001014e-02 -4.98624655e-03  1.19274313e-01
  1.84897232e-01  9.59952636e-02  4.37983049e-03  1.01153735e-02 -7.12653468e-03
  2.70877715e-03  4.50328044e-03  9.95262587e-02  5.62964014e-03  4.32861785e-03
 -9.22606768e-03  1.57046318e-01  9.76460129e-03  6.70178598e-03  1.70135604e-02
  1.42248270e-01 -7.77323331e-03  8.38254427e-03 -6.75567920e-03  8.68386248e-04
  6.79866349e-04  1.40710353e-02  5.14036279e-03  1.58383386e-02  2.70767659e-02
 -1.44595885e-01 -3.18098123e-02 -4.71567470e-03 -9.02968892e-02 -2.34296509e-01
 -5.12932086e-02 -7.70359288e-03 -2.37080588e-02 -5.85452064e-02  2.98720191e-03
 -3.99393936e-03  2.17549573e-03 -2.40429403e-04  3.15985088e-04 -1.12761428e-03
 -2.50735295e-04 -2.17288001e-02 -3.64767816e-02 -6.16723959e-02  1.31130045e-01
 -1.94361326e-02  1.04871981e-01 -9.54093575e-02  1.97008495e-01 -2.93786163e-02
  1.57102911e-01 -8.85733311e-02  1.68859519e-01 -2.55593346e-02  5.35553314e-03
  1.51872978e-05  3.18646129e-03  1.54037516e-02  2.71223318e-03 -1.66719964e-02
 -2.79077158e-02 -4.56964853e-02 -1.26296283e-01  1.22308842e-02  7.85866041e-02
 -7.16981380e-02 -1.91167966e-01  1.83525530e-02  1.32901437e-01 -6.88711106e-02
 -1.64547026e-01  1.53961100e-02  3.99182024e-03  1.17505295e-04  2.75485332e-03
  1.47581556e-02  2.78354259e-03 -4.17135017e-02 -6.18487313e-02 -3.09863764e-03
  3.29390589e-03  6.71250181e-03 -6.58206780e-04 -2.81012085e-02 -5.13551657e-02
 -1.49118398e-02  4.40829111e-03 -2.78728502e-03 -3.76907828e-03 -2.90118497e-02
 -5.27927933e-02 -1.57046780e-02  3.89131784e-03 -1.83354766e-03  4.84166308e-03
  7.55658088e-04  1.28643524e-03  1.97713505e-02 -1.11799565e-01  1.44820148e-02
 -3.99542039e-03  3.06811462e-02 -1.77935207e-01  2.30064860e-02 -2.91985409e-03
  1.99691531e-02 -9.08611904e-02  1.20013493e-02  1.40381046e-02 -4.10489742e-03
  4.44636545e-03  9.08609693e-04  2.28811165e-02  1.03470440e-03  1.79751585e-03
 -2.06059214e-02  1.29784795e-01 -1.66724938e-02 -5.90468794e-03 -3.26732822e-02
  2.07335685e-01 -2.66199292e-02 -2.11380343e-03 -1.67911506e-03  5.86726889e-03
 -7.87596178e-04  6.18379567e-04 -3.87689188e-03  9.00002189e-04 -7.32340079e-03
  2.83009254e-02  1.74527909e-02  2.95216519e-02 -5.81556202e-02 -1.21833700e-01
  1.12790938e-02 -8.86130466e-02 -8.57130189e-02 -1.77309122e-01  1.63547010e-02
 -1.34620054e-01 -8.40999913e-02 -1.57165540e-01  1.40372100e-02 -6.30860523e-03
 -1.07842749e-03 -1.63675715e-03 -7.65629666e-03  1.06274106e-02 -1.92806896e-02
 -3.26245057e-02  8.61746298e-02 -1.11584844e-01  1.82322614e-02  9.79583143e-02
  1.26252271e-01 -1.62078651e-01  2.65449237e-02  1.46346690e-01  1.20034692e-01
 -1.43367777e-01  2.39551647e-02  6.58012799e-03 -2.12385325e-03  2.41748657e-03
  2.15495679e-03  1.31880798e-02 -1.06595967e-01 -1.72871338e-01 -1.15287107e-01
 -4.65656390e-03  8.69180398e-03 -1.31640991e-03  5.35117224e-02  8.61421192e-02
  5.96811450e-02  1.68590880e-03 -2.28497898e-03  7.69934451e-03  5.33275832e-02
  8.58278669e-02  5.94738843e-02  2.49367309e-03 -4.03825062e-03 -6.69138745e-03
 -6.49795676e-07 -8.52790996e-07 -5.04518554e-03  1.06510420e-02  8.91805187e-02
  2.65849966e-06 -7.90144863e-03  1.66799090e-02  1.39649395e-01 -2.32005326e-05
 -6.49133104e-03  1.36980635e-02  1.14631733e-01  2.04134790e-03 -1.57474501e-02
 -1.69224022e-02  2.94323453e-03 -9.06840761e-04  7.96837669e-06  1.36713032e-05
  6.71510752e-03 -1.41072159e-02 -1.18101865e-01 -3.96947788e-05  1.07340953e-02
 -2.25504796e-02 -1.88787469e-01 -1.93037259e-05  1.03844446e-02 -2.18346294e-02
 -1.82681542e-01 -1.34556976e-03 -2.49075003e-02 -5.41294776e-03  2.06184403e-03
 -2.67366116e-03 -1.13202313e-06 -2.14670893e-06  8.08675063e-03 -1.69937436e-02
 -1.42011084e-01  9.95886347e-06  1.26215580e-02 -2.65292840e-02 -2.21690351e-01
 -8.66792141e-06  1.16233014e-02 -2.44076537e-02 -2.04020129e-01 -2.78881615e-03
  5.77016335e-03  1.59666884e-02 -2.25647981e-03 -2.39287247e-04 -2.37815693e-06
 -4.22138675e-06  7.80058879e-03 -1.63606892e-02 -1.36919668e-01  1.55161591e-05
  1.22114605e-02 -2.56168260e-02 -2.14401417e-01  6.10563739e-06  1.11205908e-02
 -2.33168066e-02 -1.95114032e-01  3.77839781e-03  8.97785141e-03 -1.36700791e-02
  1.14661086e-03  1.87977817e-03 -8.05816905e-05 -1.31641847e-04 -7.60126539e-05
 -2.78105050e-04  5.88686100e-04  4.84024601e-03 -7.45241789e-02 -1.26620292e-01
 -6.73138767e-02 -1.31586884e-03 -7.10302845e-03 -2.95020783e-03  7.46350298e-02
  1.26835319e-01  6.74178020e-02  1.73450709e-03  6.21556472e-03 -4.40250349e-03
  1.86164241e-03  3.12335765e-03 -3.90506181e-03 -3.39723335e-02  3.84661183e-03
 -6.37941488e-03 -5.15642198e-03 -6.05398504e-02  6.95794487e-03 -4.58081681e-02
 -1.25567633e-02 -3.32425313e-02  3.27836243e-03  4.15003066e-03 -7.33541286e-04
  1.23294731e-03  1.30889383e-03  3.24757846e-03  1.54038111e-06  6.80280886e-05
  7.62738101e-03 -1.99678339e-02  2.81976756e-03 -1.64433968e-03  1.67205556e-02