Generated by Psi4
        SP                        DF-MP2                      6-311G**
Number of atoms                            I               10
Charge                                     I                1
Multiplicity                               I                1
Number of electrons                        I               36
Number of alpha electrons                  I               18
Number of beta electrons                   I               18
Number of basis functions                  I              120
Number of independent functions            I              120
Atomic numbers                             I   N=          10
           7           6           7           1           6           6
           1           1           1           1
Nuclear charges                            R   N=          10
  7.00000000e+00  6.00000000e+00  7.00000000e+00  1.00000000e+00  6.00000000e+00
  6.00000000e+00  1.00000000e+00  1.00000000e+00  1.00000000e+00  1.00000000e+00
Current cartesian coordinates              R   N=          30
  1.11275691e+00 -1.81578634e+00 -1.54112051e-02  2.03849035e+00  4.68614296e-01
  5.50201941e-01  1.15277301e-01  2.09810000e+00  3.46687956e-01  2.56276748e-01
  3.98980167e+00  6.67940901e-01 -2.05375263e+00  8.49719410e-01 -3.53050844e-01
 -1.41739661e+00 -1.64768887e+00 -5.83628119e-01  2.14899097e+00 -3.43685100e+00
 -1.90913449e-02  3.96197999e+00  9.10795592e-01  1.06933750e+00 -3.83340007e+00
  1.80920556e+00 -6.24969559e-01 -2.53816112e+00 -3.27394122e+00 -1.09437702e+00
Integer atomic weights                     I   N=          10
          14          12          14           1          12          12
           1           1           1           1
Real atomic weights                        R   N=          10
  1.40030740e+01  1.20000000e+01  1.40030740e+01  1.00782503e+00  1.20000000e+01
  1.20000000e+01  1.00782503e+00  1.00782503e+00  1.00782503e+00  1.00782503e+00
Number of primitive shells                 I              115
Number of contracted shells                I               60
Pure/Cartesian d shells                    I                0
Pure/Cartesian f shells                    I                0
Highest angular momentum                   I                2
Largest degree of contraction              I                6
Shell types                                I   N=          60
           0           0           1           0           1           0
           1          -2           0           0           1           0
           1           0           1          -2           0           0
           1           0           1           0           1          -2
           0           0           0           1           0           0
           1           0           1           0           1          -2
           0           0           1           0           1           0
           1          -2           0           0           0           1
           0           0           0           1           0           0
           0           1           0           0           0           1
Number of primitives per shell             I   N=          60
           6           3           3           1           1           1
           1           1           6           3           3           1
           1           1           1           1           6           3
           3           1           1           1           1           1
           3           1           1           1           6           3
           3           1           1           1           1           1
           6           3           3           1           1           1
           1           1           3           1           1           1
           3           1           1           1           3           1
           1           1           3           1           1           1
Shell to atom map                          I   N=          60
           1           1           1           1           1           1
           1           1           2           2           2           2
           2           2           2           2           3           3
           3           3           3           3           3           3
           4           4           4           4           5           5
           5           5           5           5           5           5
           6           6           6           6           6           6
           6           6           7           7           7           7
           8           8           8           8           9           9
           9           9          10          10          10          10
Primitive exponents                        R   N=         115
  6.29348000e+03  9.49044000e+02  2.18776000e+02  6.36916000e+01  1.88282000e+01
  2.72023000e+00  3.06331000e+01  7.02614000e+00  2.11205000e+00  3.06331000e+01
  7.02614000e+00  2.11205000e+00  6.84009000e-01  6.84009000e-01  2.00878000e-01
  2.00878000e-01  9.13000000e-01  4.56324000e+03  6.82024000e+02  1.54973000e+02
  4.44553000e+01  1.30290000e+01  1.82773000e+00  2.09642000e+01  4.80331000e+00
  1.45933000e+00  2.09642000e+01  4.80331000e+00  1.45933000e+00  4.83456000e-01
  4.83456000e-01  1.45585000e-01  1.45585000e-01  6.26000000e-01  6.29348000e+03
  9.49044000e+02  2.18776000e+02  6.36916000e+01  1.88282000e+01  2.72023000e+00
  3.06331000e+01  7.02614000e+00  2.11205000e+00  3.06331000e+01  7.02614000e+00
  2.11205000e+00  6.84009000e-01  6.84009000e-01  2.00878000e-01  2.00878000e-01
  9.13000000e-01  3.38650000e+01  5.09479000e+00  1.15879000e+00  3.25840000e-01
  1.02741000e-01  7.50000000e-01  4.56324000e+03  6.82024000e+02  1.54973000e+02
  4.44553000e+01  1.30290000e+01  1.82773000e+00  2.09642000e+01  4.80331000e+00
  1.45933000e+00  2.09642000e+01  4.80331000e+00  1.45933000e+00  4.83456000e-01
  4.83456000e-01  1.45585000e-01  1.45585000e-01  6.26000000e-01  4.56324000e+03
  6.82024000e+02  1.54973000e+02  4.44553000e+01  1.30290000e+01  1.82773000e+00
  2.09642000e+01  4.80331000e+00  1.45933000e+00  2.09642000e+01  4.80331000e+00
  1.45933000e+00  4.83456000e-01  4.83456000e-01  1.45585000e-01  1.45585000e-01
  6.26000000e-01  3.38650000e+01  5.09479000e+00  1.15879000e+00  3.25840000e-01
  1.02741000e-01  7.50000000e-01  3.38650000e+01  5.09479000e+00  1.15879000e+00
  3.25840000e-01  1.02741000e-01  7.50000000e-01  3.38650000e+01  5.09479000e+00
  1.15879000e+00  3.25840000e-01  1.02741000e-01  7.50000000e-01  3.38650000e+01
  5.09479000e+00  1.15879000e+00  3.25840000e-01  1.02741000e-01  7.50000000e-01
Contraction coefficients                   R   N=         115
  1.96978815e-03  1.49612859e-02  7.35005308e-02  2.48936766e-01  6.02459433e-01
  2.56201759e-01  1.11906080e-01  9.21666655e-01 -2.56919183e-03  3.83119186e-02
  2.37403116e-01  8.17592398e-01  1.00000000e+00  1.00000000e+00  1.00000000e+00
  1.00000000e+00  1.00000000e+00  1.96665025e-03  1.52306019e-02  7.61269097e-02
  2.60801033e-01  6.16462078e-01  2.21006028e-01  1.14660081e-01  9.19999648e-01
 -3.03068213e-03  4.02486927e-02  2.37593957e-01  8.15853851e-01  1.00000000e+00
  1.00000000e+00  1.00000000e+00  1.00000000e+00  1.00000000e+00  1.96978815e-03
  1.49612859e-02  7.35005308e-02  2.48936766e-01  6.02459433e-01  2.56201759e-01
  1.11906080e-01  9.21666655e-01 -2.56919183e-03  3.83119186e-02  2.37403116e-01
  8.17592398e-01  1.00000000e+00  1.00000000e+00  1.00000000e+00  1.00000000e+00
  1.00000000e+00  2.54938145e-02  1.90373109e-01  8.52161486e-01  1.00000000e+00
  1.00000000e+00  1.00000000e+00  1.96665025e-03  1.52306019e-02  7.61269097e-02
  2.60801033e-01  6.16462078e-01  2.21006028e-01  1.14660081e-01  9.19999648e-01
 -3.03068213e-03  4.02486927e-02  2.37593957e-01  8.15853851e-01  1.00000000e+00
  1.00000000e+00  1.00000000e+00  1.00000000e+00  1.00000000e+00  1.96665025e-03
  1.52306019e-02  7.61269097e-02  2.60801033e-01  6.16462078e-01  2.21006028e-01
  1.14660081e-01  9.19999648e-01 -3.03068213e-03  4.02486927e-02  2.37593957e-01
  8.15853851e-01  1.00000000e+00  1.00000000e+00  1.00000000e+00  1.00000000e+00
  1.00000000e+00  2.54938145e-02  1.90373109e-01  8.52161486e-01  1.00000000e+00
  1.00000000e+00  1.00000000e+00  2.54938145e-02  1.90373109e-01  8.52161486e-01
  1.00000000e+00  1.00000000e+00  1.00000000e+00  2.54938145e-02  1.90373109e-01
  8.52161486e-01  1.00000000e+00  1.00000000e+00  1.00000000e+00  2.54938145e-02
  1.90373109e-01  8.52161486e-01  1.00000000e+00  1.00000000e+00  1.00000000e+00
Coordinates of each shell                  R   N=         180
  1.11275691e+00 -1.81578634e+00 -1.54112051e-02  1.11275691e+00 -1.81578634e+00
 -1.54112051e-02  1.11275691e+00 -1.81578634e+00 -1.54112051e-02  1.11275691e+00
 -1.81578634e+00 -1.54112051e-02  1.11275691e+00 -1.81578634e+00 -1.54112051e-02
  1.11275691e+00 -1.81578634e+00 -1.54112051e-02  1.11275691e+00 -1.81578634e+00
 -1.54112051e-02  1.11275691e+00 -1.81578634e+00 -1.54112051e-02  2.03849035e+00
  4.68614296e-01  5.50201941e-01  2.03849035e+00  4.68614296e-01  5.50201941e-01
  2.03849035e+00  4.68614296e-01  5.50201941e-01  2.03849035e+00  4.68614296e-01
  5.50201941e-01  2.03849035e+00  4.68614296e-01  5.50201941e-01  2.03849035e+00
  4.68614296e-01  5.50201941e-01  2.03849035e+00  4.68614296e-01  5.50201941e-01
  2.03849035e+00  4.68614296e-01  5.50201941e-01  1.15277301e-01  2.09810000e+00
  3.46687956e-01  1.15277301e-01  2.09810000e+00  3.46687956e-01  1.15277301e-01
  2.09810000e+00  3.46687956e-01  1.15277301e-01  2.09810000e+00  3.46687956e-01
  1.15277301e-01  2.09810000e+00  3.46687956e-01  1.15277301e-01  2.09810000e+00
  3.46687956e-01  1.15277301e-01  2.09810000e+00  3.46687956e-01  1.15277301e-01
  2.09810000e+00  3.46687956e-01  2.56276748e-01  3.98980167e+00  6.67940901e-01
  2.56276748e-01  3.98980167e+00  6.67940901e-01  2.56276748e-01  3.98980167e+00
  6.67940901e-01  2.56276748e-01  3.98980167e+00  6.67940901e-01 -2.05375263e+00
  8.49719410e-01 -3.53050844e-01 -2.05375263e+00  8.49719410e-01 -3.53050844e-01
 -2.05375263e+00  8.49719410e-01 -3.53050844e-01 -2.05375263e+00  8.49719410e-01
 -3.53050844e-01 -2.05375263e+00  8.49719410e-01 -3.53050844e-01 -2.05375263e+00
  8.49719410e-01 -3.53050844e-01 -2.05375263e+00  8.49719410e-01 -3.53050844e-01
 -2.05375263e+00  8.49719410e-01 -3.53050844e-01 -1.41739661e+00 -1.64768887e+00
 -5.83628119e-01 -1.41739661e+00 -1.64768887e+00 -5.83628119e-01 -1.41739661e+00
 -1.64768887e+00 -5.83628119e-01 -1.41739661e+00 -1.64768887e+00 -5.83628119e-01
 -1.41739661e+00 -1.64768887e+00 -5.83628119e-01 -1.41739661e+00 -1.64768887e+00
 -5.83628119e-01 -1.41739661e+00 -1.64768887e+00 -5.83628119e-01 -1.41739661e+00
 -1.64768887e+00 -5.83628119e-01  2.14899097e+00 -3.43685100e+00 -1.90913449e-02
  2.14899097e+00 -3.43685100e+00 -1.90913449e-02  2.14899097e+00 -3.43685100e+00
 -1.90913449e-02  2.14899097e+00 -3.43685100e+00 -1.90913449e-02  3.96197999e+00
  9.10795592e-01  1.06933750e+00  3.96197999e+00  9.10795592e-01  1.06933750e+00
  3.96197999e+00  9.10795592e-01  1.06933750e+00  3.96197999e+00  9.10795592e-01
  1.06933750e+00 -3.83340007e+00  1.80920556e+00 -6.24969559e-01 -3.83340007e+00
  1.80920556e+00 -6.24969559e-01 -3.83340007e+00  1.80920556e+00 -6.24969559e-01
 -3.83340007e+00  1.80920556e+00 -6.24969559e-01 -2.53816112e+00 -3.27394122e+00
 -1.09437702e+00 -2.53816112e+00 -3.27394122e+00 -1.09437702e+00 -2.53816112e+00
 -3.27394122e+00 -1.09437702e+00 -2.53816112e+00 -3.27394122e+00 -1.09437702e+00
Total Energy                               R     -2.260042006608410e+02
Alpha Orbital Energies                     R   N=         120
 -1.58524770e+01 -1.58524414e+01 -1.15563226e+01 -1.14781061e+01 -1.14766812e+01
 -1.59747675e+00 -1.43432682e+00 -1.24864563e+00 -1.09959627e+00 -1.04798156e+00
 -9.94312690e-01 -8.98844242e-01 -8.41523147e-01 -8.38462604e-01 -8.18032975e-01
 -8.05710112e-01 -6.66837836e-01 -5.43567414e-01 -5.89246793e-02 -3.27647502e-02
 -6.19426990e-03 -1.86646557e-03  2.02460870e-02  3.91786313e-02  5.01737119e-02
  1.48959672e-01  1.58422112e-01  1.78030339e-01  2.22365990e-01  2.87829290e-01
  3.21211764e-01  3.41648016e-01  3.69117077e-01  3.77758712e-01  4.15323868e-01
  4.16770590e-01  4.25498050e-01  4.86891446e-01  5.03809878e-01  5.79670183e-01
  5.98335119e-01  6.43378399e-01  6.63317282e-01  6.67637658e-01  6.91101410e-01
  6.92917392e-01  7.50660957e-01  7.60076721e-01  7.97852321e-01  9.00338995e-01
  9.32882501e-01  9.38957595e-01  9.75624750e-01  9.89563803e-01  1.13266023e+00
  1.15053554e+00  1.16810467e+00  1.19061686e+00  1.23765092e+00  1.27051235e+00
  1.35569383e+00  1.49157110e+00  1.55528812e+00  1.59233616e+00  1.64038044e+00
  1.64517926e+00  1.66983203e+00  1.70278393e+00  1.73322734e+00  1.76414439e+00
  1.79266805e+00  1.86506305e+00  1.88287272e+00  1.89864879e+00  1.89942663e+00
  2.00396288e+00  2.08172368e+00  2.14946047e+00  2.18006148e+00  2.20069125e+00
  2.29999116e+00  2.33411249e+00  2.41029306e+00  2.56987927e+00  2.57122728e+00
  2.58236733e+00  2.63506249e+00  2.65727232e+00  2.65849558e+00  2.68334068e+00
  2.73601888e+00  2.75589128e+00  2.76608095e+00  2.82355758e+00  2.86147005e+00
  2.94924366e+00  2.94958670e+00  2.97883960e+00  2.99856490e+00  3.08156370e+00
  3.13030027e+00  3.42866828e+00  3.58963985e+00  3.69280154e+00  3.70493670e+00
  3.71949363e+00  3.90460907e+00  3.99862392e+00  4.02523112e+00  4.03735640e+00
  4.24782259e+00  4.98366654e+00  5.12881888e+00  5.15772723e+00  5.52351560e+00
  2.46680143e+01  2.48026026e+01  2.51020021e+01  3.66914132e+01  3.68606127e+01
Alpha MO coefficients                      R   N=       14400
  3.97243534e-01  3.33543586e-01  3.52249163e-05  1.47014378e-04  3.08858477e-05
  3.82043462e-03 -5.41737455e-05 -2.89114084e-05 -1.71979358e-05 -1.03092803e-03
  4.26578202e-04 -3.08382490e-04  5.31457295e-05 -6.14316953e-05  1.13792200e-05
  4.51380075e-06 -1.94276324e-05 -6.45668091e-05  2.30954950e-07 -2.54762192e-07
  3.04268135e-05 -1.21929678e-04 -1.14337186e-05  2.33437093e-06  6.61666230e-05
 -2.66513757e-04 -2.50515050e-05  6.96574463e-06 -4.93569366e-06 -6.58276521e-06
 -2.19069107e-06  5.59805914e-06  2.68096280e-06  3.62420296e-05 -6.10234878e-05
  1.17038405e-04 -3.91306361e-01 -3.28558515e-01 -1.00749627e-04  1.13987747e-04
 -6.26167411e-06 -3.76296997e-03  6.16331627e-05 -2.84377083e-06  1.40461150e-05
  1.01354062e-03 -2.31040453e-04 -4.50452270e-04 -1.22917597e-04  5.66112069e-05
 -1.32435525e-05 -2.93259681e-05  6.03571471e-05 -1.72182140e-05 -1.61323672e-04
  1.87480550e-04 -3.99938432e-05  1.12183717e-05 -5.19824446e-05 -5.27337867e-06
 -9.46494459e-06  8.65618900e-06 -6.03702346e-05 -4.51994951e-05 -2.10639874e-05
 -7.12324218e-05 -1.20197464e-04 -1.65502777e-06 -2.84891785e-05 -1.33444634e-03
 -9.15019043e-04  3.71636696e-04 -1.58391401e-04 -1.07155098e-05 -2.05549776e-06
 -1.70147811e-05  2.06298464e-05 -6.91241239e-05  9.64201481e-06 -8.93645474e-06
  7.63321789e-05 -1.41439109e-05  1.57658905e-05  7.36399221e-05  1.10400180e-04
  5.07812649e-05  3.36461554e-05  1.33669287e-03  6.36830017e-04  7.29606879e-04
  2.60538558e-04  5.00542107e-06 -9.98752092e-07 -2.19799096e-05  4.47275937e-05
 -5.66067561e-05  1.63766340e-04 -1.90458263e-04  4.04329256e-05  1.55313767e-05
 -5.15284179e-05 -4.18698380e-06 -1.03976297e-07  2.10679105e-06  1.26743198e-06
  1.49763672e-06 -7.91198723e-06 -8.53117861e-07  1.66338286e-05 -2.32336604e-04
 -1.85832421e-04 -3.33525305e-05  2.60420302e-05 -3.86473908e-06 -1.66892634e-05
  2.33654002e-04  1.86219308e-04  1.73267610e-05  3.80156158e-05  9.86177492e-06
  3.91310031e-01  3.28558482e-01  3.73821347e-05  1.25970581e-04  2.81868174e-05
  3.78836861e-03 -4.92187243e-05  2.49431149e-05 -7.83780635e-06 -1.14765736e-03
  2.76098820e-04 -5.38481731e-04 -1.72060401e-05 -7.35947220e-05  1.06868031e-05
  1.20116202e-05 -4.50691639e-05 -6.35999361e-05  3.06717052e-05 -3.38445555e-05
 -8.15031657e-05 -1.77654839e-05 -2.18536942e-05  3.09968219e-04 -2.20431925e-04
 -4.85525104e-05 -5.91721300e-05  9.25574030e-04 -8.31390095e-04 -1.91080564e-04
 -2.24414549e-04  2.70761050e-05 -3.81465839e-05 -6.07221992e-06 -7.93912597e-05
 -4.04887557e-05  3.97247144e-01  3.33543552e-01  9.54910288e-05 -9.75184213e-05
  7.52984904e-06  3.84547702e-03 -3.27205962e-05 -4.35188944e-05 -1.42947733e-05
 -1.16305085e-03 -1.02578867e-05  6.05656112e-04  8.98390171e-05 -7.17823486e-05
  1.23466827e-05  3.05043614e-05 -7.60366369e-05 -4.97293626e-06  1.63540201e-04
 -1.99452846e-04  2.95229009e-05  1.49861165e-05  3.96792370e-05  9.56247917e-06
  1.18440517e-05 -1.86666196e-05  4.70695539e-05  3.57131463e-05  1.64964683e-05
  1.60470716e-04  1.62062188e-04  7.52380579e-05  4.95291796e-05  1.59136107e-04
  1.76528584e-04 -4.47852895e-05  3.46598828e-05  6.87036447e-06  9.21163081e-06
  8.18737268e-06  1.51875512e-05  5.02232763e-05  1.17000016e-05 -1.85343571e-05
  5.79130473e-05 -1.11035577e-05  1.19016674e-05  1.59378814e-04  1.78715149e-04
  2.71506838e-06  4.23743391e-05  1.39023379e-04  1.25876170e-04  1.05531485e-04
  4.55822544e-05  3.73670937e-06  7.56205662e-06 -1.21181204e-05  4.88674212e-05
 -1.56444425e-05  1.61090655e-04 -1.96598931e-04  2.89160357e-05  3.21977761e-05
 -2.80045615e-05  3.30437231e-06 -1.38675605e-05  2.80099333e-04  1.68527497e-04
 -6.50950754e-05 -1.49023911e-05 -1.75550977e-05 -3.85708527e-06  8.93629993e-05
  2.72063835e-05  2.42065450e-05 -1.61573723e-05  3.22212475e-06 -3.60603188e-06
  8.58578316e-05  2.44055938e-05  1.34878891e-05  2.43139508e-05  6.87331294e-06
 -1.62701579e-04 -2.39235276e-04  6.52744176e-05  1.75135334e-04  4.20240741e-05
  5.36819025e-04  2.31163552e-04  4.25763745e-04  1.19163964e-04 -6.48591135e-04
 -2.39020205e-06 -5.49584996e-04 -8.43226834e-05  2.61781318e-05 -7.54157770e-06
  4.69068324e-05 -9.75643550e-05  1.62358755e-04  5.63418181e-01  4.66593303e-01
 -7.88856184e-04 -1.81339185e-04 -2.12955241e-04  3.98381940e-03  4.14361314e-04
  9.52519366e-05  1.11831200e-04  6.99704667e-04 -7.03788506e-04 -1.61787590e-04
 -1.89981750e-04 -3.61831657e-04  2.34920476e-04  9.42879041e-05  2.36772729e-04
  1.03455980e-04 -1.62701352e-04 -2.39235052e-04  1.42377409e-04 -1.27399874e-04
  1.40320254e-05  5.36817831e-04  4.10574925e-04 -2.78240555e-04  5.40626121e-05
 -6.48579428e-04 -2.66753103e-04  4.87716988e-04  1.16333251e-05  1.08012317e-05
 -1.59883138e-05 -5.65770868e-05  7.47249868e-05 -1.72233686e-04  2.84291918e-05
 -9.72104222e-05 -5.37130566e-05  3.78430113e-05 -4.65363869e-05  1.80093352e-06
 -1.42361334e-04 -1.26674428e-04 -2.01527681e-05 -6.45565604e-06 -5.71987955e-06
  3.63333109e-05  1.15431904e-04  2.25234230e-05  3.05595350e-05 -1.63451583e-04
  1.02173431e-04 -1.67917166e-04 -1.59829906e-06 -3.89626972e-06  1.72378211e-05
  8.76976665e-06  2.96557080e-05  4.87190823e-05 -1.42360690e-04 -1.26673520e-04
 -2.10325662e-05 -3.01163125e-06 -5.39368043e-06  3.63310579e-05  1.13513172e-04
  3.01059883e-05  3.12156635e-05 -1.63437840e-04  1.00199218e-05  1.93716728e-04
  3.18720268e-05 -6.35458356e-06  1.58840986e-05 -7.75770935e-06  5.71628089e-05
 -4.69698517e-06  2.84283227e-05 -9.72085008e-05 -5.37135985e-05  1.12469194e-05
  5.78209028e-05  1.14558187e-05  2.87829072e-04 -2.79252381e-04  4.49602629e-04
  1.46762941e-04  3.37392941e-05  3.96079002e-05 -4.04114631e-06  1.58980424e-04
  4.26071838e-05  4.17599787e-05 -6.27413066e-06  8.85642463e-06 -4.04093280e-06
  1.58985709e-04  4.26103960e-05  3.41204999e-05  2.37192282e-05  1.16182985e-05
 -9.04497013e-05 -1.56239885e-04 -9.02174710e-05  8.62347570e-06 -1.98645339e-05
  4.39715455e-04 -4.81409513e-04 -9.18949702e-06 -1.14388249e-04 -5.49922516e-04
  3.37866476e-04 -2.20403771e-04  4.57009364e-05 -5.55276936e-06  4.53984466e-05
 -2.05451488e-05  1.69102324e-04  1.10922357e-05  2.15286195e-04  1.68589086e-04
  2.00807648e-05  4.61351915e-06  5.42135970e-06  1.70307148e-05 -1.38550632e-04
 -3.18363622e-05 -3.74040544e-05  1.88322900e-04 -5.49642118e-04 -1.26363270e-04
 -1.48335391e-04 -2.41973611e-05  3.46734212e-09  7.27742541e-06 -3.17050185e-05
 -1.74817598e-05 -9.04794965e-05 -1.56286404e-04 -7.61000890e-05 -4.68740173e-05
 -2.50172548e-05  4.39818045e-04 -4.32655978e-04 -2.00950088e-04 -1.32256625e-04
 -5.49951393e-04  1.94355625e-04  3.42742812e-04  9.78663720e-05 -4.87746007e-08
  4.84612551e-05  1.64155798e-05  1.07628471e-04  1.30581473e-04  2.52545455e-05
 -5.52758409e-05 -9.80931212e-05 -1.79836621e-05 -3.80994502e-05 -1.00291404e-05
  3.98338177e-01  3.29861533e-01  6.98049996e-04  2.57451971e-04  2.03270380e-04
  3.16145196e-03 -4.12727472e-04 -3.57363698e-04 -1.51392143e-04  3.23829516e-05
  1.98744092e-04  1.42712490e-04  6.84384104e-05 -2.03370995e-04  1.08315329e-05
 -5.25590330e-06 -1.01832343e-04 -3.17888561e-04  3.98220422e-01  3.29764004e-01
  7.44574026e-04  7.43413146e-05  1.85991199e-04  3.16060186e-03 -5.38966307e-04
  1.38402666e-04 -1.05420118e-04  3.23838133e-05  2.45394872e-04 -4.05635031e-05
  5.13965899e-05 -1.84692716e-04  2.09806411e-05  1.19929261e-04 -3.10276812e-04
  8.71506406e-05  2.52492574e-05 -5.52872587e-05 -9.80819601e-05 -3.43350787e-05
  2.60600412e-05 -4.08375799e-06 -1.39294902e-05  2.93624703e-04  1.60603858e-04
 -6.12175781e-05 -1.40696606e-05 -1.65238416e-05  2.25577970e-04 -3.09082935e-04
  2.73646586e-04 -1.26346954e-04  1.68598975e-05 -2.71027226e-05  2.25515365e-04
 -3.09031796e-04  2.73602337e-04 -1.04225769e-04 -6.98514903e-05 -3.51147013e-05
  9.74434974e-05  1.53222407e-04  9.94377054e-05 -2.68836238e-05  1.92483437e-05
 -3.27996694e-04  4.67334560e-04  7.63492356e-05  1.21321049e-04  1.96054183e-05
 -2.10460502e-05 -1.33148327e-04 -2.52031108e-05  1.61825556e-05 -5.93582152e-05
  1.45877673e-05 -1.90175933e-04 -3.54784033e-05 -3.13182791e-08 -2.45559657e-08
  3.74587681e-06 -1.47062964e-05 -1.36312474e-06 -2.25861340e-09 -1.87855189e-05
  7.37824652e-05  6.83941909e-06 -2.34438788e-08  1.15946982e-05 -4.51445819e-05
 -4.17153769e-06 -3.66054534e-06 -2.01199878e-06 -2.46521644e-05  4.10390442e-05
 -7.96830731e-05 -9.74178256e-05 -1.53177077e-04 -7.54642468e-05 -6.70845396e-05
 -2.79429432e-05  3.27867415e-04 -4.52212429e-04 -1.35008693e-04 -1.26808859e-04
 -1.94490665e-05  8.27569994e-05 -1.09371242e-04  2.79822176e-06 -1.16959281e-05
  6.18381257e-05  1.54547493e-05  1.40137585e-04  1.32529504e-04  1.19151033e-05
  7.21267916e-05 -3.36259358e-05 -6.79041518e-08 -4.06677338e-05 -6.21169272e-06
  3.98367913e-01  3.29944178e-01  6.14713348e-04  6.24480122e-04  2.39561106e-04
  2.89008922e-03 -3.35369511e-04 -6.48093108e-04 -1.77437863e-04 -1.68163438e-04
  1.52097302e-04  2.58008529e-04  7.50042880e-05 -3.56171633e-04  5.55996005e-05
  2.25261855e-05 -1.35808446e-04 -4.02531533e-04 -3.98485623e-01 -3.30041654e-01
 -8.47627265e-04  2.88326217e-04 -1.54994857e-04 -2.89102766e-03  6.10457121e-04
 -4.30730448e-04  7.77527578e-05  1.68157562e-04 -2.59558969e-04  1.63401156e-04
 -3.60611448e-05  3.33315018e-04 -6.81362707e-05 -1.77030987e-04  3.93132516e-04
 -9.70980446e-05 -1.19220674e-05 -7.21125472e-05  3.36553103e-05  1.96533466e-05
 -3.61445123e-05 -8.93983311e-07  1.61394855e-09 -4.42054773e-08 -2.42433673e-08
 -4.50098777e-06  1.76973472e-05  1.64325799e-06  2.19550578e-04 -2.10686813e-04
  1.54867563e-04 -9.50221726e-05  3.21360677e-05 -1.74152236e-05 -2.19618800e-04
  2.10786457e-04 -1.54952267e-04  6.90620048e-05  6.98725850e-05  2.68659701e-05
  6.62766893e-02  1.09470672e-01  9.85244213e-03 -3.00947342e-02 -2.27546562e-03
 -2.90602837e-01  1.58934699e-02 -4.98741411e-02 -3.87356857e-03 -2.16862296e-01
  1.79745844e-02 -4.32973390e-02 -2.38021420e-03  9.31535207e-03 -3.63396670e-03
 -3.26965012e-03  2.58515959e-03 -8.94475788e-04  5.54372195e-02  9.07707067e-02
  4.38082845e-02  1.00706384e-02  1.18261118e-02 -2.33994105e-01  7.01991578e-02
  1.61373274e-02  1.89497626e-02 -1.15792061e-02 -3.79398066e-02 -8.72168391e-03
 -1.02409968e-02  1.44640194e-02 -5.66483474e-03 -4.00184341e-03  1.80893720e-03
  1.64757966e-03  6.62771514e-02  1.09471433e-01 -5.72942065e-03  3.10427358e-02
  3.38396584e-03 -2.90604815e-01 -9.88151547e-03  5.12566113e-02  5.48878048e-03
 -2.16862882e-01 -4.86362520e-03  4.63119265e-02  5.91260334e-03  9.51016637e-03
 -3.52944940e-03 -1.95204751e-03  3.95344173e-04  3.35992357e-03 -3.02626297e-02
 -3.84030791e-02  3.54788617e-03  8.31386819e-04  1.11167286e-02  1.88861706e-03
  3.37961025e-02  5.53213609e-02 -3.19512627e-02  1.94693942e-03 -7.21069832e-03
 -1.38678052e-01 -5.26424218e-02  4.10351211e-03 -1.17433669e-02 -3.08367534e-02
  8.08558294e-03 -1.78853698e-03  1.62684709e-03  8.73482622e-03 -5.65318697e-03
 -2.85904262e-03 -4.48940602e-03 -4.13125388e-03  3.37960181e-02  5.53212284e-02
 -2.74790640e-02 -1.56094642e-02 -8.82579189e-03 -1.38677716e-01 -4.48427637e-02
 -2.65145312e-02 -1.45615119e-02 -3.08361685e-02  6.33066844e-03  5.10287221e-03
  2.26237721e-03  8.90175952e-03 -5.55799039e-03 -1.74947157e-03 -6.33713250e-03
 -5.45573579e-04 -3.02620846e-02 -3.84025166e-02  3.54776378e-03  6.09190061e-03
 -9.52493469e-03 -2.08867227e-05 -1.52303499e-02 -1.05179288e-02  1.64622929e-02
  4.29264719e-03  9.86774504e-04  1.15878225e-03 -8.01034083e-03 -7.88375298e-03
  7.65607234e-03 -3.07164879e-03  4.75611369e-04 -6.49283164e-04 -8.01040101e-03
 -7.88358567e-03  7.65628593e-03 -2.50288141e-03 -1.75712417e-03 -8.54933206e-04
  7.88639086e-02  1.30667637e-01  3.39136961e-03  1.68379229e-04  8.17094407e-04
 -3.51801458e-01  6.94673921e-03  3.66366743e-03  2.18186434e-03 -2.66046365e-01
  1.60921030e-02 -1.64509701e-02  1.26667097e-03  7.47581816e-03 -3.70361223e-03
 -1.68611635e-03 -2.09054161e-03  5.99057457e-04  4.54380485e-07  7.44413791e-07
 -1.74998560e-02  6.86676325e-02  6.35208534e-03 -1.94663592e-06 -2.91183488e-02
  1.14257034e-01  1.05697105e-02 -4.41453466e-07 -1.58498180e-03  6.21978177e-03
  5.75103293e-04 -1.27786210e-03 -7.00462353e-04 -8.60441717e-03  1.43219575e-02
 -2.78149312e-02 -7.88635692e-02 -1.30667070e-01 -3.09626512e-03 -1.32245871e-03
 -9.29824380e-04  3.51799826e-01 -7.94065094e-03  2.42038001e-04 -1.82975139e-03
  2.66044919e-01 -6.38840896e-03 -2.16188136e-02 -4.79546957e-03 -7.38047609e-03
  3.75786537e-03  2.32190072e-03  1.02945577e-03  1.46046503e-03  5.78679530e-02
  6.63159781e-02 -4.25267003e-03 -1.04417704e-03 -1.73503686e-02 -2.88790969e-03
 -2.54547105e-02 -4.16072651e-02  2.49709804e-02  2.57791625e-02  9.79337740e-03
  1.04386162e-01  4.32924698e-02  5.18391221e-02  1.80655607e-02  2.31280526e-03
 -1.97449290e-02  8.94238587e-03 -3.27726795e-03 -4.60568663e-03  7.49083950e-03
  3.52930808e-03  1.14016610e-02  1.57506766e-02  2.54543364e-02  4.16066615e-02
 -3.46205420e-02  1.20800971e-02 -6.28616678e-03 -1.04384613e-01 -6.34618928e-02
  2.72979743e-02 -1.07400934e-02 -2.31211362e-03  1.32550940e-02  1.65285935e-02
  5.62764764e-03  5.34492087e-03 -7.08224741e-03  1.43724723e-03 -1.96717599e-02
  3.08177090e-04 -5.78675630e-02 -6.63157339e-02  4.25266358e-03  9.28261573e-03
 -1.49762205e-02 -1.02420300e-04 -2.12903203e-07 -3.32512265e-07  2.87855857e-08
 -1.04598544e-03  4.10468646e-03  3.79658492e-04  1.19628685e-02  1.13549779e-02
 -6.28864307e-03  4.41821353e-03  4.42333191e-04  1.10533445e-03 -1.19628415e-02
 -1.13550367e-02  6.28854398e-03 -4.14238071e-03 -1.52565402e-03 -1.20468282e-03
  1.21844492e-02  2.03228739e-02 -7.07429396e-02 -2.42236048e-02 -2.03018496e-02
 -5.71148871e-02 -1.17746298e-01 -4.05844200e-02 -3.38313915e-02 -2.80433565e-02
 -5.53720216e-02 -9.66534948e-03 -1.44730114e-02 -1.85777724e-04  2.07831864e-03
 -3.81411250e-03  1.35573583e-02 -7.59094116e-03  6.02476009e-02  9.96935753e-02
  1.82692273e-03  4.19177915e-04  4.96121060e-04 -2.67912331e-01  8.01782029e-03
  1.84184835e-03  2.16880781e-03 -1.45306600e-01  3.61666209e-02  8.31410517e-03
  9.76114273e-03  9.53722943e-03 -6.90089807e-04 -2.82819515e-03  1.04070937e-02
  5.81290906e-03  1.21850746e-02  2.03239154e-02 -7.45756888e-02 -9.18372915e-03
 -1.89152213e-02 -5.71177328e-02 -1.24253588e-01 -1.50489244e-02 -3.14773174e-02
 -2.80455911e-02 -5.38961761e-02 -1.54543618e-02 -1.50129870e-02  8.73877528e-04
  2.66148446e-03  3.31216305e-03  1.69380543e-03  1.54480197e-02 -2.05776810e-02
 -2.02989207e-02  2.80325661e-03 -2.66116030e-03  5.24627300e-03  1.74121552e-04
 -6.85467522e-02 -1.13212992e-01  1.49208651e-02 -3.49756858e-02 -1.81595217e-03
  2.93592703e-01  2.53103477e-02 -5.46914440e-02 -2.37537849e-03  1.38887645e-01
  1.55024967e-02 -2.15506317e-02  3.60160370e-04 -1.12407182e-02  1.70862650e-03
  2.89068891e-03 -8.79402645e-03 -6.55447714e-03 -6.85468220e-02 -1.13213109e-01
 -3.56730164e-03  3.75856222e-02  4.87858108e-03  2.93592858e-01 -3.81835882e-03
  5.96321970e-02  8.17321853e-03  1.38888592e-01  3.41169523e-03  2.58990893e-02
  4.74496975e-03 -1.11340074e-02  1.76496228e-03  3.61862099e-03 -1.00059520e-02
 -4.19890113e-03 -2.05766586e-02 -2.02978075e-02  2.80323113e-03  1.59410104e-04
 -5.82112514e-03 -8.49773087e-04 -4.59478391e-02 -7.66106600e-02 -5.30803314e-03
  1.36758706e-02  3.14382517e-03  3.69118356e-03  3.73422608e-02  5.59433095e-02
 -2.99291811e-03  8.26763666e-03 -5.96521361e-03  1.03395485e-03  3.73426793e-02
  5.59439818e-02 -2.99279285e-03  4.48103598e-03  8.89611156e-03  2.40614044e-03
  3.47660699e-02  5.83906930e-02 -1.24328504e-02  1.17919460e-01  1.50488126e-02
 -1.64922461e-01 -1.85216108e-02  1.87983270e-01  2.42950603e-02 -1.34059916e-01
 -1.66829020e-02  1.17825930e-01  1.40365311e-02  1.36502440e-03  4.63797308e-05
  2.35210127e-03 -3.62038572e-03  8.95252396e-03 -5.32557028e-02 -8.89743720e-02
 -1.82113863e-02 -4.18564551e-03 -4.91597729e-03  2.45908140e-01 -2.64192623e-02
 -6.07203010e-03 -7.13087260e-03  9.46155426e-02  2.53061990e-02  5.81752215e-03
  6.83144325e-03 -8.77790458e-03  8.20982094e-03  2.13225054e-03  1.33416435e-02
  6.40622939e-03  3.47656075e-02  5.83899136e-02  4.57214403e-02 -1.10268716e-01
 -6.05594248e-03 -1.64920275e-01  7.40419803e-02 -1.75222745e-01 -9.29685842e-03