Generated by Psi4
        SP                        DF-MP2                   AUG-CC-PVTZ
Number of atoms                            I               10
Charge                                     I                1
Multiplicity                               I                1
Number of electrons                        I               36
Number of alpha electrons                  I               18
Number of beta electrons                   I               18
Number of basis functions                  I              345
Number of independent functions            I              345
Atomic numbers                             I   N=          10
           7           6           7           1           6           6
           1           1           1           1
Nuclear charges                            R   N=          10
  7.00000000e+00  6.00000000e+00  7.00000000e+00  1.00000000e+00  6.00000000e+00
  6.00000000e+00  1.00000000e+00  1.00000000e+00  1.00000000e+00  1.00000000e+00
Current cartesian coordinates              R   N=          30
  1.11275691e+00 -1.81578634e+00 -1.54112051e-02  2.03849035e+00  4.68614296e-01
  5.50201941e-01  1.15277301e-01  2.09810000e+00  3.46687956e-01  2.56276748e-01
  3.98980167e+00  6.67940901e-01 -2.05375263e+00  8.49719410e-01 -3.53050844e-01
 -1.41739661e+00 -1.64768887e+00 -5.83628119e-01  2.14899097e+00 -3.43685100e+00
 -1.90913449e-02  3.96197999e+00  9.10795592e-01  1.06933750e+00 -3.83340007e+00
  1.80920556e+00 -6.24969559e-01 -2.53816112e+00 -3.27394122e+00 -1.09437702e+00
Integer atomic weights                     I   N=          10
          14          12          14           1          12          12
           1           1           1           1
Real atomic weights                        R   N=          10
  1.40030740e+01  1.20000000e+01  1.40030740e+01  1.00782503e+00  1.20000000e+01
  1.20000000e+01  1.00782503e+00  1.00782503e+00  1.00782503e+00  1.00782503e+00
Number of primitive shells                 I              205
Number of contracted shells                I              115
Pure/Cartesian d shells                    I                0
Pure/Cartesian f shells                    I                0
Highest angular momentum                   I                3
Largest degree of contraction              I                8
Shell types                                I   N=         115
           0           0           0           0           1           1
           1          -2          -2          -3           0           1
          -2          -3           0           0           0           0
           1           1           1          -2          -2          -3
           0           1          -2          -3           0           0
           0           0           1           1           1          -2
          -2          -3           0           1          -2          -3
           0           0           0           1           1          -2
           0           1          -2           0           0           0
           0           1           1           1          -2          -2
          -3           0           1          -2          -3           0
           0           0           0           1           1           1
          -2          -2          -3           0           1          -2
          -3           0           0           0           1           1
          -2           0           1          -2           0           0
           0           1           1          -2           0           1
          -2           0           0           0           1           1
          -2           0           1          -2           0           0
           0           1           1          -2           0           1
          -2
Number of primitives per shell             I   N=         115
           8           8           1           1           3           1
           1           1           1           1           1           1
           1           1           8           8           1           1
           3           1           1           1           1           1
           1           1           1           1           8           8
           1           1           3           1           1           1
           1           1           1           1           1           1
           3           1           1           1           1           1
           1           1           1           8           8           1
           1           3           1           1           1           1
           1           1           1           1           1           8
           8           1           1           3           1           1
           1           1           1           1           1           1
           1           3           1           1           1           1
           1           1           1           1           3           1
           1           1           1           1           1           1
           1           3           1           1           1           1
           1           1           1           1           3           1
           1           1           1           1           1           1
           1
Shell to atom map                          I   N=         115
           1           1           1           1           1           1
           1           1           1           1           1           1
           1           1           2           2           2           2
           2           2           2           2           2           2
           2           2           2           2           3           3
           3           3           3           3           3           3
           3           3           3           3           3           3
           4           4           4           4           4           4
           4           4           4           5           5           5
           5           5           5           5           5           5
           5           5           5           5           5           6
           6           6           6           6           6           6
           6           6           6           6           6           6
           6           7           7           7           7           7
           7           7           7           7           8           8
           8           8           8           8           8           8
           8           9           9           9           9           9
           9           9           9           9          10          10
          10          10          10          10          10          10
          10
Primitive exponents                        R   N=         205
  1.14200000e+04  1.71200000e+03  3.89300000e+02  1.10000000e+02  3.55700000e+01
  1.25400000e+01  4.64400000e+00  5.11800000e-01  1.14200000e+04  1.71200000e+03
  3.89300000e+02  1.10000000e+02  3.55700000e+01  1.25400000e+01  4.64400000e+00
  5.11800000e-01  1.29300000e+00  1.78700000e-01  2.66300000e+01  5.94800000e+00
  1.74200000e+00  5.55000000e-01  1.72500000e-01  1.65400000e+00  4.69000000e-01
  1.09300000e+00  5.76000000e-02  4.91000000e-02  1.51000000e-01  3.64000000e-01
  8.23600000e+03  1.23500000e+03  2.80800000e+02  7.92700000e+01  2.55900000e+01
  8.99700000e+00  3.31900000e+00  3.64300000e-01  8.23600000e+03  1.23500000e+03
  2.80800000e+02  7.92700000e+01  2.55900000e+01  8.99700000e+00  3.31900000e+00
  3.64300000e-01  9.05900000e-01  1.28500000e-01  1.87100000e+01  4.13300000e+00
  1.20000000e+00  3.82700000e-01  1.20900000e-01  1.09700000e+00  3.18000000e-01
  7.61000000e-01  4.40200000e-02  3.56900000e-02  1.00000000e-01  2.68000000e-01
  1.14200000e+04  1.71200000e+03  3.89300000e+02  1.10000000e+02  3.55700000e+01
  1.25400000e+01  4.64400000e+00  5.11800000e-01  1.14200000e+04  1.71200000e+03
  3.89300000e+02  1.10000000e+02  3.55700000e+01  1.25400000e+01  4.64400000e+00
  5.11800000e-01  1.29300000e+00  1.78700000e-01  2.66300000e+01  5.94800000e+00
  1.74200000e+00  5.55000000e-01  1.72500000e-01  1.65400000e+00  4.69000000e-01
  1.09300000e+00  5.76000000e-02  4.91000000e-02  1.51000000e-01  3.64000000e-01
  3.38700000e+01  5.09500000e+00  1.15900000e+00  3.25800000e-01  1.02700000e-01
  1.40700000e+00  3.88000000e-01  1.05700000e+00  2.52600000e-02  1.02000000e-01
  2.47000000e-01  8.23600000e+03  1.23500000e+03  2.80800000e+02  7.92700000e+01
  2.55900000e+01  8.99700000e+00  3.31900000e+00  3.64300000e-01  8.23600000e+03
  1.23500000e+03  2.80800000e+02  7.92700000e+01  2.55900000e+01  8.99700000e+00
  3.31900000e+00  3.64300000e-01  9.05900000e-01  1.28500000e-01  1.87100000e+01
  4.13300000e+00  1.20000000e+00  3.82700000e-01  1.20900000e-01  1.09700000e+00
  3.18000000e-01  7.61000000e-01  4.40200000e-02  3.56900000e-02  1.00000000e-01
  2.68000000e-01  8.23600000e+03  1.23500000e+03  2.80800000e+02  7.92700000e+01
  2.55900000e+01  8.99700000e+00  3.31900000e+00  3.64300000e-01  8.23600000e+03
  1.23500000e+03  2.80800000e+02  7.92700000e+01  2.55900000e+01  8.99700000e+00
  3.31900000e+00  3.64300000e-01  9.05900000e-01  1.28500000e-01  1.87100000e+01
  4.13300000e+00  1.20000000e+00  3.82700000e-01  1.20900000e-01  1.09700000e+00
  3.18000000e-01  7.61000000e-01  4.40200000e-02  3.56900000e-02  1.00000000e-01
  2.68000000e-01  3.38700000e+01  5.09500000e+00  1.15900000e+00  3.25800000e-01
  1.02700000e-01  1.40700000e+00  3.88000000e-01  1.05700000e+00  2.52600000e-02
  1.02000000e-01  2.47000000e-01  3.38700000e+01  5.09500000e+00  1.15900000e+00
  3.25800000e-01  1.02700000e-01  1.40700000e+00  3.88000000e-01  1.05700000e+00
  2.52600000e-02  1.02000000e-01  2.47000000e-01  3.38700000e+01  5.09500000e+00
  1.15900000e+00  3.25800000e-01  1.02700000e-01  1.40700000e+00  3.88000000e-01
  1.05700000e+00  2.52600000e-02  1.02000000e-01  2.47000000e-01  3.38700000e+01
  5.09500000e+00  1.15900000e+00  3.25800000e-01  1.02700000e-01  1.40700000e+00
  3.88000000e-01  1.05700000e+00  2.52600000e-02  1.02000000e-01  2.47000000e-01
Contraction coefficients                   R   N=         205
  5.34980914e-04  4.13766310e-03  2.12509149e-02  8.25762988e-02  2.38413273e-01
  4.43431666e-01  3.55431909e-01 -8.70290176e-03 -1.98776985e-04 -1.54700349e-03
 -7.99256330e-03 -3.20255651e-02 -9.91102048e-02 -2.28292775e-01 -2.98182763e-01
  1.03700052e+00  1.00000000e+00  1.00000000e+00  3.98072123e-02  2.49002660e-01
  8.10479727e-01  1.00000000e+00  1.00000000e+00  1.00000000e+00  1.00000000e+00
  1.00000000e+00  1.00000000e+00  1.00000000e+00  1.00000000e+00  1.00000000e+00
  5.42430189e-04  4.19642790e-03  2.15409141e-02  8.36149496e-02  2.39871619e-01
  4.43751820e-01  3.53579696e-01 -9.17636608e-03 -1.96392234e-04 -1.52595027e-03
 -7.89044903e-03 -3.15148705e-02 -9.69100083e-02 -2.20541526e-01 -2.96069113e-01
  1.04050343e+00  1.00000000e+00  1.00000000e+00  3.94263872e-02  2.44088985e-01
  8.15492009e-01  1.00000000e+00  1.00000000e+00  1.00000000e+00  1.00000000e+00
  1.00000000e+00  1.00000000e+00  1.00000000e+00  1.00000000e+00  1.00000000e+00
  5.34980914e-04  4.13766310e-03  2.12509149e-02  8.25762988e-02  2.38413273e-01
  4.43431666e-01  3.55431909e-01 -8.70290176e-03 -1.98776985e-04 -1.54700349e-03
 -7.99256330e-03 -3.20255651e-02 -9.91102048e-02 -2.28292775e-01 -2.98182763e-01
  1.03700052e+00  1.00000000e+00  1.00000000e+00  3.98072123e-02  2.49002660e-01
  8.10479727e-01  1.00000000e+00  1.00000000e+00  1.00000000e+00  1.00000000e+00
  1.00000000e+00  1.00000000e+00  1.00000000e+00  1.00000000e+00  1.00000000e+00
  2.54948632e-02  1.90362766e-01  8.52162022e-01  1.00000000e+00  1.00000000e+00
  1.00000000e+00  1.00000000e+00  1.00000000e+00  1.00000000e+00  1.00000000e+00
  1.00000000e+00  5.42430189e-04  4.19642790e-03  2.15409141e-02  8.36149496e-02
  2.39871619e-01  4.43751820e-01  3.53579696e-01 -9.17636608e-03 -1.96392234e-04
 -1.52595027e-03 -7.89044903e-03 -3.15148705e-02 -9.69100083e-02 -2.20541526e-01
 -2.96069113e-01  1.04050343e+00  1.00000000e+00  1.00000000e+00  3.94263872e-02
  2.44088985e-01  8.15492009e-01  1.00000000e+00  1.00000000e+00  1.00000000e+00
  1.00000000e+00  1.00000000e+00  1.00000000e+00  1.00000000e+00  1.00000000e+00
  1.00000000e+00  5.42430189e-04  4.19642790e-03  2.15409141e-02  8.36149496e-02
  2.39871619e-01  4.43751820e-01  3.53579696e-01 -9.17636608e-03 -1.96392234e-04
 -1.52595027e-03 -7.89044903e-03 -3.15148705e-02 -9.69100083e-02 -2.20541526e-01
 -2.96069113e-01  1.04050343e+00  1.00000000e+00  1.00000000e+00  3.94263872e-02
  2.44088985e-01  8.15492009e-01  1.00000000e+00  1.00000000e+00  1.00000000e+00
  1.00000000e+00  1.00000000e+00  1.00000000e+00  1.00000000e+00  1.00000000e+00
  1.00000000e+00  2.54948632e-02  1.90362766e-01  8.52162022e-01  1.00000000e+00
  1.00000000e+00  1.00000000e+00  1.00000000e+00  1.00000000e+00  1.00000000e+00
  1.00000000e+00  1.00000000e+00  2.54948632e-02  1.90362766e-01  8.52162022e-01
  1.00000000e+00  1.00000000e+00  1.00000000e+00  1.00000000e+00  1.00000000e+00
  1.00000000e+00  1.00000000e+00  1.00000000e+00  2.54948632e-02  1.90362766e-01
  8.52162022e-01  1.00000000e+00  1.00000000e+00  1.00000000e+00  1.00000000e+00
  1.00000000e+00  1.00000000e+00  1.00000000e+00  1.00000000e+00  2.54948632e-02
  1.90362766e-01  8.52162022e-01  1.00000000e+00  1.00000000e+00  1.00000000e+00
  1.00000000e+00  1.00000000e+00  1.00000000e+00  1.00000000e+00  1.00000000e+00
Coordinates of each shell                  R   N=         345
  1.11275691e+00 -1.81578634e+00 -1.54112051e-02  1.11275691e+00 -1.81578634e+00
 -1.54112051e-02  1.11275691e+00 -1.81578634e+00 -1.54112051e-02  1.11275691e+00
 -1.81578634e+00 -1.54112051e-02  1.11275691e+00 -1.81578634e+00 -1.54112051e-02
  1.11275691e+00 -1.81578634e+00 -1.54112051e-02  1.11275691e+00 -1.81578634e+00
 -1.54112051e-02  1.11275691e+00 -1.81578634e+00 -1.54112051e-02  1.11275691e+00
 -1.81578634e+00 -1.54112051e-02  1.11275691e+00 -1.81578634e+00 -1.54112051e-02
  1.11275691e+00 -1.81578634e+00 -1.54112051e-02  1.11275691e+00 -1.81578634e+00
 -1.54112051e-02  1.11275691e+00 -1.81578634e+00 -1.54112051e-02  1.11275691e+00
 -1.81578634e+00 -1.54112051e-02  2.03849035e+00  4.68614296e-01  5.50201941e-01
  2.03849035e+00  4.68614296e-01  5.50201941e-01  2.03849035e+00  4.68614296e-01
  5.50201941e-01  2.03849035e+00  4.68614296e-01  5.50201941e-01  2.03849035e+00
  4.68614296e-01  5.50201941e-01  2.03849035e+00  4.68614296e-01  5.50201941e-01
  2.03849035e+00  4.68614296e-01  5.50201941e-01  2.03849035e+00  4.68614296e-01
  5.50201941e-01  2.03849035e+00  4.68614296e-01  5.50201941e-01  2.03849035e+00
  4.68614296e-01  5.50201941e-01  2.03849035e+00  4.68614296e-01  5.50201941e-01
  2.03849035e+00  4.68614296e-01  5.50201941e-01  2.03849035e+00  4.68614296e-01
  5.50201941e-01  2.03849035e+00  4.68614296e-01  5.50201941e-01  1.15277301e-01
  2.09810000e+00  3.46687956e-01  1.15277301e-01  2.09810000e+00  3.46687956e-01
  1.15277301e-01  2.09810000e+00  3.46687956e-01  1.15277301e-01  2.09810000e+00
  3.46687956e-01  1.15277301e-01  2.09810000e+00  3.46687956e-01  1.15277301e-01
  2.09810000e+00  3.46687956e-01  1.15277301e-01  2.09810000e+00  3.46687956e-01
  1.15277301e-01  2.09810000e+00  3.46687956e-01  1.15277301e-01  2.09810000e+00
  3.46687956e-01  1.15277301e-01  2.09810000e+00  3.46687956e-01  1.15277301e-01
  2.09810000e+00  3.46687956e-01  1.15277301e-01  2.09810000e+00  3.46687956e-01
  1.15277301e-01  2.09810000e+00  3.46687956e-01  1.15277301e-01  2.09810000e+00
  3.46687956e-01  2.56276748e-01  3.98980167e+00  6.67940901e-01  2.56276748e-01
  3.98980167e+00  6.67940901e-01  2.56276748e-01  3.98980167e+00  6.67940901e-01
  2.56276748e-01  3.98980167e+00  6.67940901e-01  2.56276748e-01  3.98980167e+00
  6.67940901e-01  2.56276748e-01  3.98980167e+00  6.67940901e-01  2.56276748e-01
  3.98980167e+00  6.67940901e-01  2.56276748e-01  3.98980167e+00  6.67940901e-01
  2.56276748e-01  3.98980167e+00  6.67940901e-01 -2.05375263e+00  8.49719410e-01
 -3.53050844e-01 -2.05375263e+00  8.49719410e-01 -3.53050844e-01 -2.05375263e+00
  8.49719410e-01 -3.53050844e-01 -2.05375263e+00  8.49719410e-01 -3.53050844e-01
 -2.05375263e+00  8.49719410e-01 -3.53050844e-01 -2.05375263e+00  8.49719410e-01
 -3.53050844e-01 -2.05375263e+00  8.49719410e-01 -3.53050844e-01 -2.05375263e+00
  8.49719410e-01 -3.53050844e-01 -2.05375263e+00  8.49719410e-01 -3.53050844e-01
 -2.05375263e+00  8.49719410e-01 -3.53050844e-01 -2.05375263e+00  8.49719410e-01
 -3.53050844e-01 -2.05375263e+00  8.49719410e-01 -3.53050844e-01 -2.05375263e+00
  8.49719410e-01 -3.53050844e-01 -2.05375263e+00  8.49719410e-01 -3.53050844e-01
 -1.41739661e+00 -1.64768887e+00 -5.83628119e-01 -1.41739661e+00 -1.64768887e+00
 -5.83628119e-01 -1.41739661e+00 -1.64768887e+00 -5.83628119e-01 -1.41739661e+00
 -1.64768887e+00 -5.83628119e-01 -1.41739661e+00 -1.64768887e+00 -5.83628119e-01
 -1.41739661e+00 -1.64768887e+00 -5.83628119e-01 -1.41739661e+00 -1.64768887e+00
 -5.83628119e-01 -1.41739661e+00 -1.64768887e+00 -5.83628119e-01 -1.41739661e+00
 -1.64768887e+00 -5.83628119e-01 -1.41739661e+00 -1.64768887e+00 -5.83628119e-01
 -1.41739661e+00 -1.64768887e+00 -5.83628119e-01 -1.41739661e+00 -1.64768887e+00
 -5.83628119e-01 -1.41739661e+00 -1.64768887e+00 -5.83628119e-01 -1.41739661e+00
 -1.64768887e+00 -5.83628119e-01  2.14899097e+00 -3.43685100e+00 -1.90913449e-02
  2.14899097e+00 -3.43685100e+00 -1.90913449e-02  2.14899097e+00 -3.43685100e+00
 -1.90913449e-02  2.14899097e+00 -3.43685100e+00 -1.90913449e-02  2.14899097e+00
 -3.43685100e+00 -1.90913449e-02  2.14899097e+00 -3.43685100e+00 -1.90913449e-02
  2.14899097e+00 -3.43685100e+00 -1.90913449e-02  2.14899097e+00 -3.43685100e+00
 -1.90913449e-02  2.14899097e+00 -3.43685100e+00 -1.90913449e-02  3.96197999e+00
  9.10795592e-01  1.06933750e+00  3.96197999e+00  9.10795592e-01  1.06933750e+00
  3.96197999e+00  9.10795592e-01  1.06933750e+00  3.96197999e+00  9.10795592e-01
  1.06933750e+00  3.96197999e+00  9.10795592e-01  1.06933750e+00  3.96197999e+00
  9.10795592e-01  1.06933750e+00  3.96197999e+00  9.10795592e-01  1.06933750e+00
  3.96197999e+00  9.10795592e-01  1.06933750e+00  3.96197999e+00  9.10795592e-01
  1.06933750e+00 -3.83340007e+00  1.80920556e+00 -6.24969559e-01 -3.83340007e+00
  1.80920556e+00 -6.24969559e-01 -3.83340007e+00  1.80920556e+00 -6.24969559e-01
 -3.83340007e+00  1.80920556e+00 -6.24969559e-01 -3.83340007e+00  1.80920556e+00
 -6.24969559e-01 -3.83340007e+00  1.80920556e+00 -6.24969559e-01 -3.83340007e+00
  1.80920556e+00 -6.24969559e-01 -3.83340007e+00  1.80920556e+00 -6.24969559e-01
 -3.83340007e+00  1.80920556e+00 -6.24969559e-01 -2.53816112e+00 -3.27394122e+00
 -1.09437702e+00 -2.53816112e+00 -3.27394122e+00 -1.09437702e+00 -2.53816112e+00
 -3.27394122e+00 -1.09437702e+00 -2.53816112e+00 -3.27394122e+00 -1.09437702e+00
 -2.53816112e+00 -3.27394122e+00 -1.09437702e+00 -2.53816112e+00 -3.27394122e+00
 -1.09437702e+00 -2.53816112e+00 -3.27394122e+00 -1.09437702e+00 -2.53816112e+00
 -3.27394122e+00 -1.09437702e+00 -2.53816112e+00 -3.27394122e+00 -1.09437702e+00
Total Energy                               R     -2.261608063928537e+02
Alpha Orbital Energies                     R   N=         345
 -1.58523754e+01 -1.58523403e+01 -1.15543983e+01 -1.14771416e+01 -1.14757078e+01
 -1.59464428e+00 -1.43247407e+00 -1.24660356e+00 -1.09775275e+00 -1.04643619e+00
 -9.92852747e-01 -8.96561893e-01 -8.42334667e-01 -8.36733421e-01 -8.17183318e-01
 -8.04416123e-01 -6.66829843e-01 -5.43899983e-01 -9.74142880e-02 -8.12577717e-02
 -7.70203767e-02 -7.09142538e-02 -5.28652022e-02 -5.14093300e-02 -4.52439515e-02
 -3.44001528e-02 -3.42764685e-02 -1.05165288e-02 -9.80237285e-03 -2.74527924e-03
  2.49751726e-04  8.43364744e-04  1.68371964e-03  1.39534401e-02  2.50622441e-02
  3.55212912e-02  3.68509929e-02  5.05439971e-02  5.17997491e-02  5.53667028e-02
  7.58353778e-02  8.93364506e-02  9.34539669e-02  9.65172647e-02  1.10679799e-01
  1.31604267e-01  1.33347046e-01  1.56932908e-01  1.66223897e-01  1.68159629e-01
  1.75283332e-01  1.81401319e-01  1.84029351e-01  1.88287920e-01  1.89753220e-01
  1.92587187e-01  2.13662108e-01  2.19331085e-01  2.28926820e-01  2.34962155e-01
  2.49589556e-01  2.51380335e-01  2.52006312e-01  2.62825086e-01  2.65097586e-01
  2.85827318e-01  3.02187636e-01  3.09896264e-01  3.17861149e-01  3.22349023e-01
  3.29399133e-01  3.37517250e-01  3.41258860e-01  3.42947774e-01  3.48033930e-01
  3.56814245e-01  3.56964556e-01  3.64864391e-01  3.77485741e-01  4.16035660e-01
  4.27410756e-01  4.33556584e-01  4.47819969e-01  4.51009770e-01  4.61348893e-01
  4.85345877e-01  4.92678726e-01  5.21740258e-01  5.28018061e-01  5.28718914e-01
  5.60409603e-01  5.64742244e-01  5.64940606e-01  5.65208890e-01  6.08339089e-01
  6.13954960e-01  6.16533086e-01  6.40764691e-01  6.56277534e-01  6.79429272e-01
  6.85484139e-01  6.96019840e-01  7.18422391e-01  7.33823800e-01  7.40578956e-01
  7.47544965e-01  7.58984104e-01  7.63178995e-01  7.74284576e-01  7.76333954e-01
  7.92139998e-01  8.03721532e-01  8.04193063e-01  8.04819661e-01  8.31071361e-01
  8.33291308e-01  8.57958236e-01  8.68711833e-01  8.75645094e-01  8.84289570e-01
  8.84672335e-01  8.89301504e-01  9.04379879e-01  9.33624015e-01  9.45815948e-01
  9.62193142e-01  9.66357915e-01  9.77509576e-01  9.84082423e-01  9.94725973e-01
  1.00525131e+00  1.01905457e+00  1.01916227e+00  1.03688676e+00  1.04444908e+00
  1.05442357e+00  1.06932332e+00  1.07229160e+00  1.09816467e+00  1.11959491e+00
  1.14287902e+00  1.16044360e+00  1.17995138e+00  1.17998197e+00  1.19583998e+00
  1.21643595e+00  1.22536424e+00  1.23878176e+00  1.24873037e+00  1.25447463e+00
  1.25991637e+00  1.26958410e+00  1.30425314e+00  1.30848300e+00  1.33363738e+00
  1.34082729e+00  1.34287312e+00  1.34737520e+00  1.35864130e+00  1.36669437e+00
  1.41832933e+00  1.43867599e+00  1.47468084e+00  1.48250301e+00  1.48937364e+00
  1.52604451e+00  1.55910464e+00  1.57075037e+00  1.59247092e+00  1.62903907e+00
  1.62931892e+00  1.68171451e+00  1.68447012e+00  1.69387146e+00  1.69653710e+00
  1.75993349e+00  1.76648564e+00  1.80092494e+00  1.80129353e+00  1.80885147e+00
  1.84242192e+00  1.87541944e+00  1.87644640e+00  1.91189364e+00  1.93202063e+00
  1.94908265e+00  1.97260601e+00  1.97734834e+00  1.97962283e+00  2.05199934e+00
  2.06284543e+00  2.06515748e+00  2.07517145e+00  2.08475748e+00  2.13047304e+00
  2.15877882e+00  2.15993895e+00  2.20401733e+00  2.21641100e+00  2.26281122e+00
  2.27166165e+00  2.27580271e+00  2.29452736e+00  2.31343054e+00  2.32834590e+00
  2.36196995e+00  2.37814408e+00  2.44225121e+00  2.47400465e+00  2.51220676e+00
  2.52811440e+00  2.54783346e+00  2.62884112e+00  2.69325174e+00  2.71360418e+00
  2.72676782e+00  2.80961880e+00  2.83586975e+00  2.87211015e+00  2.88408221e+00
  2.91428164e+00  2.97604509e+00  3.08219292e+00  3.11431723e+00  3.12304978e+00
  3.16230540e+00  3.23494311e+00  3.24222099e+00  3.27636629e+00  3.28994666e+00
  3.31811726e+00  3.34936529e+00  3.39593468e+00  3.39752222e+00  3.46042021e+00
  3.47720840e+00  3.49081786e+00  3.52340770e+00  3.54008044e+00  3.54538923e+00
  3.57167243e+00  3.60451452e+00  3.60498679e+00  3.63609932e+00  3.64047132e+00
  3.66131546e+00  3.67332714e+00  3.74799631e+00  3.74884282e+00  3.81177045e+00
  3.81404046e+00  3.83979099e+00  3.91472728e+00  3.91499732e+00  3.91862294e+00
  3.93489011e+00  3.95536814e+00  3.96142096e+00  3.96172991e+00  4.02028461e+00
  4.03076242e+00  4.04463584e+00  4.05033096e+00  4.07973763e+00  4.09680442e+00
  4.12800713e+00  4.16120724e+00  4.18375457e+00  4.18862449e+00  4.21438204e+00
  4.26859104e+00  4.27460148e+00  4.33556302e+00  4.35363321e+00  4.36192754e+00
  4.40801530e+00  4.41116356e+00  4.43966381e+00  4.51696894e+00  4.55163871e+00
  4.55193953e+00  4.59069644e+00  4.60812840e+00  4.65765401e+00  4.69081503e+00
  4.73348548e+00  4.74582667e+00  4.76152194e+00  4.78495386e+00  4.82019767e+00
  4.82751291e+00  4.84686177e+00  4.89446446e+00  4.98228141e+00  4.98982396e+00
  5.01875458e+00  5.05280726e+00  5.11144265e+00  5.16502780e+00  5.17870126e+00
  5.23632357e+00  5.24839766e+00  5.30324744e+00  5.34701914e+00  5.35589885e+00
  5.37722464e+00  5.39995316e+00  5.40547470e+00  5.46188176e+00  5.50551456e+00
  5.50978228e+00  5.56727391e+00  5.58210906e+00  5.61238169e+00  5.62588756e+00
  5.63214453e+00  5.68831338e+00  5.75589718e+00  5.80615848e+00  5.84357113e+00
  5.85659823e+00  5.98542352e+00  6.01438457e+00  6.04127543e+00  6.08237776e+00
  6.09155290e+00  6.27962215e+00  6.30335583e+00  6.40073090e+00  6.42766920e+00
  6.52289552e+00  6.57755023e+00  6.64590122e+00  6.77079724e+00  6.81922590e+00
  6.89571930e+00  6.92343363e+00  7.42777724e+00  7.62168010e+00  7.62212841e+00
  1.61020598e+01  1.65679851e+01  1.80420581e+01  1.83391527e+01  1.89495355e+01
Alpha MO coefficients                      R   N=      119025
  6.96271969e-01  2.55723862e-04  3.06127943e-02  2.58988153e-03 -3.85477886e-06
  2.08755634e-04  3.11269815e-05  4.72042137e-04 -1.14927847e-03 -6.44160432e-05
 -2.86526012e-03  1.95114030e-03 -3.75472312e-04 -2.83171917e-04  1.00356023e-04
  6.17559578e-05 -3.25596509e-05 -9.78700429e-05  5.51459051e-04 -4.26764776e-04
 -2.42345047e-04 -3.62635978e-04 -5.58133232e-04  4.02806624e-07 -7.59528618e-05
  1.14466427e-04 -6.70027777e-05  1.59636812e-05 -3.49434966e-04 -9.11956897e-05
 -7.06943550e-04 -2.22920401e-04  9.64211599e-04  9.43600832e-05  6.91994504e-04
 -1.83056955e-04 -3.30112529e-04  6.20200094e-04 -1.65546667e-04 -4.59886494e-05
  1.46977050e-04 -3.92480023e-04  2.83617641e-04 -3.59036054e-04  1.70684708e-03
 -4.40138690e-04  5.57616839e-06  1.16345460e-05  6.89916783e-06 -5.20862652e-05
  6.50916207e-05 -2.60639307e-04 -2.44283713e-05  7.32957157e-04 -2.94457451e-03
 -2.76507532e-04 -4.95417133e-05  1.75638320e-04  1.52579088e-05  5.81491755e-06
  3.19017956e-06  4.10826417e-05 -6.90360147e-05  1.32070414e-04  4.10293277e-05
  1.75845901e-05  2.45094862e-04 -4.11478126e-04  7.95566645e-04 -2.53512928e-05
  4.77990250e-05 -1.04969599e-04 -5.80174336e-05  1.34006430e-04 -1.76619904e-04
  2.10165228e-04 -7.56387086e-06  7.79736764e-05 -3.01278342e-04 -2.74880229e-05
 -9.26145058e-05 -5.35394409e-05 -6.31050938e-04  1.04515545e-03 -2.04283035e-03
 -1.83370904e-05  6.74222152e-05 -7.21162629e-05 -8.65482738e-05  3.30183347e-04
 -5.56685743e-04  6.52197570e-04 -6.85364871e-01 -2.51897723e-04 -3.01334586e-02
 -2.56353112e-03 -9.59894903e-05  1.84265629e-04  5.56375492e-06  1.37978830e-04
 -1.21176476e-03 -1.52165210e-04  1.60782269e-03  2.93843833e-03  8.25390697e-04
  2.73840094e-04 -1.01757162e-04 -9.31164846e-05  8.49869928e-05 -9.03653796e-06
 -5.71661778e-04  4.07025513e-04  4.42144906e-05  6.88355046e-04 -7.36654481e-05
  4.90225615e-05  2.16078817e-05  1.00209932e-04  1.20944127e-04  2.35995084e-05
  1.29319475e-04  3.22578353e-04  7.11634959e-04 -2.67838516e-04  9.44187964e-04
  8.07639401e-05 -7.23942160e-04  1.61012644e-04  7.25549966e-05 -1.89742564e-04
 -6.58217765e-04 -1.18731671e-04 -5.49652737e-05 -3.36501011e-04 -3.37770359e-04
 -4.21862719e-04  2.27723983e-04 -1.71981179e-03 -4.06023830e-04 -1.71633968e-03
 -4.58685598e-04 -2.28114875e-06 -2.09807396e-04 -3.24963394e-05  4.91903913e-04
 -7.74255517e-04 -2.28410376e-06 -2.34470392e-04  1.72931480e-05  1.18227192e-04
 -3.52656162e-04 -2.95702420e-06  1.50001869e-05  3.32348465e-04 -5.17402813e-04
 -6.56848004e-07 -3.05358941e-04  5.43613493e-05  8.54117307e-05 -2.29492897e-04
 -1.44745484e-04 -3.07262474e-04 -6.51823169e-04 -3.60089602e-04  8.80514148e-03
 -8.77684498e-05 -6.91748642e-05 -3.11696287e-05 -1.46377932e-03 -1.69592537e-03
 -6.02074766e-04  3.13530711e-03 -1.82811339e-03  4.57689611e-04  2.74088301e-05
 -4.67635870e-05 -4.15886271e-05 -3.28943872e-05 -1.56324804e-04 -3.49917684e-04
 -2.02601180e-04  3.59050565e-04 -1.55571933e-03  1.23594768e-04 -2.07640928e-05
  1.42094401e-05 -4.76241209e-05  5.41360583e-05  6.40332935e-05  9.31918350e-05
  2.08553659e-04  1.02514019e-03 -3.15358831e-04 -5.27315873e-04 -1.54345940e-04
 -4.87550836e-04  3.08411159e-04 -2.51160485e-04  1.05387339e-03 -9.55648811e-04
 -6.73777884e-06  3.19073046e-05 -3.29623174e-05  8.00194246e-05  9.00369995e-05
  1.05038425e-04  3.38237142e-04  3.11866669e-04  6.61566149e-04  3.64556651e-04
 -8.86909666e-03  1.13593122e-04 -2.32616711e-05  2.31148415e-05  2.13657245e-03
 -8.76221369e-04  3.68072673e-04 -1.90788793e-03 -2.96543452e-03 -8.99104310e-04
 -3.83057706e-05  4.15429886e-05 -2.75416400e-05  1.48888426e-04 -6.74064506e-05
  4.20936038e-04  2.38216423e-04  9.54558281e-05  7.98334505e-04  1.35093311e-03
  2.92302443e-06  2.15548035e-05 -2.92417206e-05 -9.61861793e-05  3.18843864e-05
 -2.18037823e-04 -5.77661912e-05 -1.02924621e-03  5.35095202e-04 -3.32904430e-04
  7.50022870e-05  3.77368070e-04 -3.71165376e-04 -4.69847521e-04  1.32054267e-04
 -1.39042315e-03 -4.77103509e-06  1.81128999e-06 -1.33833905e-05 -1.23503464e-04
  5.71936301e-05 -3.45515893e-04 -5.71734137e-05  4.12312310e-04  1.74616611e-03
  4.60743327e-04  1.04856198e-04 -1.88133487e-04 -4.05029799e-06 -5.59056187e-05
 -9.05045260e-04 -1.50992632e-04  2.52073441e-04 -1.00187987e-05 -2.53696797e-05
  1.99727382e-04  3.08904361e-04 -1.27306369e-05 -4.02282305e-05 -6.08577285e-04
 -1.02097155e-04  3.08048662e-04 -5.60480930e-05 -9.14425868e-05  2.38280547e-04
  1.28951920e-04  5.18311698e-07  1.82479800e-05  2.65703150e-05  1.30490899e-06
 -9.12913801e-06 -1.07882144e-06  2.06160574e-04 -8.35235925e-04 -7.89339054e-05
  4.10092280e-06  2.44009581e-06  2.75145192e-05 -4.52682616e-05  8.93214389e-05
  1.17852868e-07 -3.20104768e-04  1.23333665e-03  1.12614979e-04  4.02003121e-06
  2.27580742e-06  2.66835835e-05 -4.41246111e-05  8.65198405e-05 -5.78391867e-05
 -2.54034070e-04 -1.29186237e-03 -7.18126852e-05  2.85895539e-05 -1.25249181e-05
 -1.60818904e-04 -3.57861639e-04 -9.22005167e-05  2.26532570e-06 -1.47523317e-05